/*--------------------------------*- C++ -*----------------------------------*\
  =========                 |
  \\      /  F ield         | OpenFOAM: The Open Source CFD Toolbox
   \\    /   O peration     | Website:  https://openfoam.org
    \\  /    A nd           | Version:  11
     \\/     M anipulation  |
\*---------------------------------------------------------------------------*/
FoamFile
{
    format      ascii;
    class       volVectorField;
    location    "0";
    object      C;
}
// * * * * * * * * * * * * * * * * * * * * * * * * * * * * * * * * * * * * * //

dimensions      [0 1 0 0 0 0 0];

internalField   nonuniform List<vector> 
4800
(
(0.0025 0.0025 0)
(0.0075 0.0025 6.02335e-21)
(0.0125 0.0025 0)
(0.0175 0.0025 -2.87774e-19)
(0.0225 0.0025 -2.87774e-19)
(0.0275 0.0025 0)
(0.0325 0.0025 0)
(0.0375 0.0025 0)
(0.0425 0.0025 0)
(0.0475 0.0025 0)
(0.0525 0.0025 0)
(0.0575 0.0025 0)
(0.0625 0.0025 0)
(0.0675 0.0025 0)
(0.0725 0.0025 0)
(0.0775 0.0025 0)
(0.0825 0.0025 0)
(0.0875 0.0025 0)
(0.0925 0.0025 0)
(0.0975 0.0025 0)
(0.1025 0.0025 0)
(0.1075 0.0025 0)
(0.1125 0.0025 0)
(0.1175 0.0025 6.02335e-21)
(0.1225 0.0025 0)
(0.1275 0.0025 0)
(0.1325 0.0025 0)
(0.1375 0.0025 0)
(0.1425 0.0025 -6.02335e-21)
(0.1475 0.0025 0)
(0.1525 0.0025 0)
(0.1575 0.0025 0)
(0.1625 0.0025 0)
(0.1675 0.0025 0)
(0.1725 0.0025 -6.02335e-21)
(0.1775 0.0025 0)
(0.1825 0.0025 0)
(0.1875 0.0025 0)
(0.1925 0.0025 0)
(0.1975 0.0025 0)
(0.0025 0.0075 -6.02335e-21)
(0.0075 0.0075 0)
(0.0125 0.0075 -1.20467e-20)
(0.0175 0.0075 -1.4991e-19)
(0.0225 0.0075 -1.4991e-19)
(0.0275 0.0075 -1.61957e-19)
(0.0325 0.0075 -2.87774e-19)
(0.0375 0.0075 1.4991e-19)
(0.0425 0.0075 1.4991e-19)
(0.0475 0.0075 -2.87774e-19)
(0.0525 0.0075 1.4991e-19)
(0.0575 0.0075 0)
(0.0625 0.0075 -2.87774e-19)
(0.0675 0.0075 -2.87774e-19)
(0.0725 0.0075 -1.20467e-20)
(0.0775 0.0075 -2.87774e-19)
(0.0825 0.0075 -2.87774e-19)
(0.0875 0.0075 0)
(0.0925 0.0075 -2.87774e-19)
(0.0975 0.0075 -2.87774e-19)
(0.1025 0.0075 0)
(0.1075 0.0075 -2.87774e-19)
(0.1125 0.0075 -2.87774e-19)
(0.1175 0.0075 1.20467e-20)
(0.1225 0.0075 -2.87774e-19)
(0.1275 0.0075 -2.87774e-19)
(0.1325 0.0075 -2.87774e-19)
(0.1375 0.0075 -2.87774e-19)
(0.1425 0.0075 -2.9982e-19)
(0.1475 0.0075 -2.87774e-19)
(0.1525 0.0075 -2.87774e-19)
(0.1575 0.0075 -2.87774e-19)
(0.1625 0.0075 -2.87774e-19)
(0.1675 0.0075 -2.87774e-19)
(0.1725 0.0075 -2.9982e-19)
(0.1775 0.0075 -2.87774e-19)
(0.1825 0.0075 -2.87774e-19)
(0.1875 0.0075 -2.87774e-19)
(0.1925 0.0075 -2.87774e-19)
(0.1975 0.0075 -2.87774e-19)
(0.0025 0.0125 0)
(0.0075 0.0125 1.20467e-20)
(0.0125 0.0125 0)
(0.0175 0.0125 1.20467e-20)
(0.0225 0.0125 1.20467e-20)
(0.0275 0.0125 0)
(0.0325 0.0125 0)
(0.0375 0.0125 0)
(0.0425 0.0125 0)
(0.0475 0.0125 0)
(0.0525 0.0125 0)
(0.0575 0.0125 2.9982e-19)
(0.0625 0.0125 0)
(0.0675 0.0125 0)
(0.0725 0.0125 -1.20467e-20)
(0.0775 0.0125 0)
(0.0825 0.0125 0)
(0.0875 0.0125 0)
(0.0925 0.0125 0)
(0.0975 0.0125 0)
(0.1025 0.0125 0)
(0.1075 0.0125 0)
(0.1125 0.0125 0)
(0.1175 0.0125 1.20467e-20)
(0.1225 0.0125 0)
(0.1275 0.0125 0)
(0.1325 0.0125 0)
(0.1375 0.0125 0)
(0.1425 0.0125 0)
(0.1475 0.0125 0)
(0.1525 0.0125 0)
(0.1575 0.0125 0)
(0.1625 0.0125 0)
(0.1675 0.0125 0)
(0.1725 0.0125 0)
(0.1775 0.0125 0)
(0.1825 0.0125 0)
(0.1875 0.0125 0)
(0.1925 0.0125 0)
(0.1975 0.0125 0)
(0.0025 0.0175 2.87774e-19)
(0.0075 0.0175 1.4991e-19)
(0.0125 0.0175 -1.20467e-20)
(0.0175 0.0175 0)
(0.0225 0.0175 -2.87774e-19)
(0.0275 0.0175 1.4991e-19)
(0.0325 0.0175 -1.4991e-19)
(0.0375 0.0175 -1.4991e-19)
(0.0425 0.0175 -1.4991e-19)
(0.0475 0.0175 -1.4991e-19)
(0.0525 0.0175 -1.4991e-19)
(0.0575 0.0175 0)
(0.0625 0.0175 -1.4991e-19)
(0.0675 0.0175 -1.4991e-19)
(0.0725 0.0175 0)
(0.0775 0.0175 -1.4991e-19)
(0.0825 0.0175 -1.4991e-19)
(0.0875 0.0175 0)
(0.0925 0.0175 -1.4991e-19)
(0.0975 0.0175 -1.4991e-19)
(0.1025 0.0175 0)
(0.1075 0.0175 -1.4991e-19)
(0.1125 0.0175 -1.4991e-19)
(0.1175 0.0175 0)
(0.1225 0.0175 -1.4991e-19)
(0.1275 0.0175 -1.4991e-19)
(0.1325 0.0175 -1.4991e-19)
(0.1375 0.0175 -1.4991e-19)
(0.1425 0.0175 0)
(0.1475 0.0175 -1.4991e-19)
(0.1525 0.0175 -1.4991e-19)
(0.1575 0.0175 -1.4991e-19)
(0.1625 0.0175 -1.4991e-19)
(0.1675 0.0175 -1.4991e-19)
(0.1725 0.0175 0)
(0.1775 0.0175 -1.4991e-19)
(0.1825 0.0175 -1.4991e-19)
(0.1875 0.0175 -1.4991e-19)
(0.1925 0.0175 -1.4991e-19)
(0.1975 0.0175 -1.4991e-19)
(0.0025 0.0225 2.87774e-19)
(0.0075 0.0225 1.4991e-19)
(0.0125 0.0225 -1.20467e-20)
(0.0175 0.0225 2.87774e-19)
(0.0225 0.0225 0)
(0.0275 0.0225 1.4991e-19)
(0.0325 0.0225 -1.4991e-19)
(0.0375 0.0225 0)
(0.0425 0.0225 0)
(0.0475 0.0225 -1.4991e-19)
(0.0525 0.0225 0)
(0.0575 0.0225 0)
(0.0625 0.0225 -1.4991e-19)
(0.0675 0.0225 -1.4991e-19)
(0.0725 0.0225 0)
(0.0775 0.0225 -1.4991e-19)
(0.0825 0.0225 -1.4991e-19)
(0.0875 0.0225 0)
(0.0925 0.0225 -1.4991e-19)
(0.0975 0.0225 -1.4991e-19)
(0.1025 0.0225 0)
(0.1075 0.0225 -1.4991e-19)
(0.1125 0.0225 -1.4991e-19)
(0.1175 0.0225 0)
(0.1225 0.0225 -1.4991e-19)
(0.1275 0.0225 -1.4991e-19)
(0.1325 0.0225 -1.4991e-19)
(0.1375 0.0225 -1.4991e-19)
(0.1425 0.0225 0)
(0.1475 0.0225 -1.4991e-19)
(0.1525 0.0225 -1.4991e-19)
(0.1575 0.0225 -1.4991e-19)
(0.1625 0.0225 -1.4991e-19)
(0.1675 0.0225 -1.4991e-19)
(0.1725 0.0225 0)
(0.1775 0.0225 -1.4991e-19)
(0.1825 0.0225 -1.4991e-19)
(0.1875 0.0225 -1.4991e-19)
(0.1925 0.0225 -1.4991e-19)
(0.1975 0.0225 -1.4991e-19)
(0.0025 0.0275 0)
(0.0075 0.0275 1.61957e-19)
(0.0125 0.0275 0)
(0.0175 0.0275 -1.4991e-19)
(0.0225 0.0275 -1.4991e-19)
(0.0275 0.0275 0)
(0.0325 0.0275 -1.4991e-19)
(0.0375 0.0275 0)
(0.0425 0.0275 0)
(0.0475 0.0275 -1.4991e-19)
(0.0525 0.0275 0)
(0.0575 0.0275 0)
(0.0625 0.0275 -1.4991e-19)
(0.0675 0.0275 -1.4991e-19)
(0.0725 0.0275 0)
(0.0775 0.0275 -1.4991e-19)
(0.0825 0.0275 -1.4991e-19)
(0.0875 0.0275 0)
(0.0925 0.0275 -1.4991e-19)
(0.0975 0.0275 -1.4991e-19)
(0.1025 0.0275 0)
(0.1075 0.0275 -1.4991e-19)
(0.1125 0.0275 -1.4991e-19)
(0.1175 0.0275 -1.20467e-20)
(0.1225 0.0275 -1.4991e-19)
(0.1275 0.0275 -1.4991e-19)
(0.1325 0.0275 -1.4991e-19)
(0.1375 0.0275 -1.4991e-19)
(0.1425 0.0275 1.4991e-19)
(0.1475 0.0275 -1.4991e-19)
(0.1525 0.0275 -1.4991e-19)
(0.1575 0.0275 -1.4991e-19)
(0.1625 0.0275 -1.4991e-19)
(0.1675 0.0275 -1.4991e-19)
(0.1725 0.0275 1.4991e-19)
(0.1775 0.0275 -1.4991e-19)
(0.1825 0.0275 -1.4991e-19)
(0.1875 0.0275 -1.4991e-19)
(0.1925 0.0275 -1.4991e-19)
(0.1975 0.0275 -1.4991e-19)
(0.0025 0.0325 0)
(0.0075 0.0325 2.87774e-19)
(0.0125 0.0325 0)
(0.0175 0.0325 1.4991e-19)
(0.0225 0.0325 1.4991e-19)
(0.0275 0.0325 1.4991e-19)
(0.0325 0.0325 0)
(0.0375 0.0325 0)
(0.0425 0.0325 0)
(0.0475 0.0325 0)
(0.0525 0.0325 0)
(0.0575 0.0325 1.4991e-19)
(0.0625 0.0325 0)
(0.0675 0.0325 0)
(0.0725 0.0325 0)
(0.0775 0.0325 0)
(0.0825 0.0325 0)
(0.0875 0.0325 0)
(0.0925 0.0325 0)
(0.0975 0.0325 0)
(0.1025 0.0325 0)
(0.1075 0.0325 0)
(0.1125 0.0325 0)
(0.1175 0.0325 0)
(0.1225 0.0325 0)
(0.1275 0.0325 0)
(0.1325 0.0325 0)
(0.1375 0.0325 0)
(0.1425 0.0325 2.9982e-19)
(0.1475 0.0325 0)
(0.1525 0.0325 0)
(0.1575 0.0325 0)
(0.1625 0.0325 0)
(0.1675 0.0325 0)
(0.1725 0.0325 0)
(0.1775 0.0325 0)
(0.1825 0.0325 0)
(0.1875 0.0325 0)
(0.1925 0.0325 0)
(0.1975 0.0325 0)
(0.0025 0.0375 0)
(0.0075 0.0375 -1.4991e-19)
(0.0125 0.0375 0)
(0.0175 0.0375 1.4991e-19)
(0.0225 0.0375 0)
(0.0275 0.0375 0)
(0.0325 0.0375 0)
(0.0375 0.0375 0)
(0.0425 0.0375 0)
(0.0475 0.0375 0)
(0.0525 0.0375 0)
(0.0575 0.0375 0)
(0.0625 0.0375 0)
(0.0675 0.0375 0)
(0.0725 0.0375 0)
(0.0775 0.0375 0)
(0.0825 0.0375 0)
(0.0875 0.0375 0)
(0.0925 0.0375 0)
(0.0975 0.0375 0)
(0.1025 0.0375 0)
(0.1075 0.0375 0)
(0.1125 0.0375 0)
(0.1175 0.0375 0)
(0.1225 0.0375 0)
(0.1275 0.0375 0)
(0.1325 0.0375 0)
(0.1375 0.0375 0)
(0.1425 0.0375 0)
(0.1475 0.0375 0)
(0.1525 0.0375 0)
(0.1575 0.0375 0)
(0.1625 0.0375 0)
(0.1675 0.0375 0)
(0.1725 0.0375 0)
(0.1775 0.0375 0)
(0.1825 0.0375 0)
(0.1875 0.0375 0)
(0.1925 0.0375 0)
(0.1975 0.0375 0)
(0.0025 0.0425 0)
(0.0075 0.0425 -1.4991e-19)
(0.0125 0.0425 0)
(0.0175 0.0425 1.4991e-19)
(0.0225 0.0425 0)
(0.0275 0.0425 0)
(0.0325 0.0425 0)
(0.0375 0.0425 0)
(0.0425 0.0425 0)
(0.0475 0.0425 0)
(0.0525 0.0425 0)
(0.0575 0.0425 0)
(0.0625 0.0425 0)
(0.0675 0.0425 0)
(0.0725 0.0425 0)
(0.0775 0.0425 0)
(0.0825 0.0425 0)
(0.0875 0.0425 0)
(0.0925 0.0425 0)
(0.0975 0.0425 0)
(0.1025 0.0425 0)
(0.1075 0.0425 0)
(0.1125 0.0425 0)
(0.1175 0.0425 0)
(0.1225 0.0425 0)
(0.1275 0.0425 0)
(0.1325 0.0425 0)
(0.1375 0.0425 0)
(0.1425 0.0425 0)
(0.1475 0.0425 0)
(0.1525 0.0425 0)
(0.1575 0.0425 0)
(0.1625 0.0425 0)
(0.1675 0.0425 0)
(0.1725 0.0425 0)
(0.1775 0.0425 0)
(0.1825 0.0425 0)
(0.1875 0.0425 0)
(0.1925 0.0425 0)
(0.1975 0.0425 0)
(0.0025 0.0475 0)
(0.0075 0.0475 2.87774e-19)
(0.0125 0.0475 0)
(0.0175 0.0475 1.4991e-19)
(0.0225 0.0475 1.4991e-19)
(0.0275 0.0475 1.4991e-19)
(0.0325 0.0475 0)
(0.0375 0.0475 0)
(0.0425 0.0475 0)
(0.0475 0.0475 0)
(0.0525 0.0475 0)
(0.0575 0.0475 1.4991e-19)
(0.0625 0.0475 0)
(0.0675 0.0475 0)
(0.0725 0.0475 0)
(0.0775 0.0475 0)
(0.0825 0.0475 0)
(0.0875 0.0475 0)
(0.0925 0.0475 0)
(0.0975 0.0475 0)
(0.1025 0.0475 0)
(0.1075 0.0475 0)
(0.1125 0.0475 0)
(0.1175 0.0475 0)
(0.1225 0.0475 0)
(0.1275 0.0475 0)
(0.1325 0.0475 0)
(0.1375 0.0475 0)
(0.1425 0.0475 2.9982e-19)
(0.1475 0.0475 0)
(0.1525 0.0475 0)
(0.1575 0.0475 0)
(0.1625 0.0475 0)
(0.1675 0.0475 0)
(0.1725 0.0475 0)
(0.1775 0.0475 0)
(0.1825 0.0475 0)
(0.1875 0.0475 0)
(0.1925 0.0475 0)
(0.1975 0.0475 0)
(0.0025 0.0525 0)
(0.0075 0.0525 -1.4991e-19)
(0.0125 0.0525 0)
(0.0175 0.0525 1.4991e-19)
(0.0225 0.0525 0)
(0.0275 0.0525 0)
(0.0325 0.0525 0)
(0.0375 0.0525 0)
(0.0425 0.0525 0)
(0.0475 0.0525 0)
(0.0525 0.0525 0)
(0.0575 0.0525 0)
(0.0625 0.0525 0)
(0.0675 0.0525 0)
(0.0725 0.0525 0)
(0.0775 0.0525 0)
(0.0825 0.0525 0)
(0.0875 0.0525 0)
(0.0925 0.0525 0)
(0.0975 0.0525 0)
(0.1025 0.0525 0)
(0.1075 0.0525 0)
(0.1125 0.0525 0)
(0.1175 0.0525 0)
(0.1225 0.0525 0)
(0.1275 0.0525 0)
(0.1325 0.0525 0)
(0.1375 0.0525 0)
(0.1425 0.0525 0)
(0.1475 0.0525 0)
(0.1525 0.0525 0)
(0.1575 0.0525 0)
(0.1625 0.0525 0)
(0.1675 0.0525 0)
(0.1725 0.0525 0)
(0.1775 0.0525 0)
(0.1825 0.0525 0)
(0.1875 0.0525 0)
(0.1925 0.0525 0)
(0.1975 0.0525 0)
(0.0025 0.0575 0)
(0.0075 0.0575 0)
(0.0125 0.0575 -2.9982e-19)
(0.0175 0.0575 0)
(0.0225 0.0575 0)
(0.0275 0.0575 0)
(0.0325 0.0575 -1.4991e-19)
(0.0375 0.0575 0)
(0.0425 0.0575 0)
(0.0475 0.0575 -1.4991e-19)
(0.0525 0.0575 0)
(0.0575 0.0575 0)
(0.0625 0.0575 -1.4991e-19)
(0.0675 0.0575 -1.4991e-19)
(0.0725 0.0575 0)
(0.0775 0.0575 -1.4991e-19)
(0.0825 0.0575 -1.4991e-19)
(0.0875 0.0575 0)
(0.0925 0.0575 -1.4991e-19)
(0.0975 0.0575 -1.4991e-19)
(0.1025 0.0575 0)
(0.1075 0.0575 -1.4991e-19)
(0.1125 0.0575 -1.4991e-19)
(0.1175 0.0575 0)
(0.1225 0.0575 -1.4991e-19)
(0.1275 0.0575 -1.4991e-19)
(0.1325 0.0575 -1.4991e-19)
(0.1375 0.0575 -1.4991e-19)
(0.1425 0.0575 0)
(0.1475 0.0575 -1.4991e-19)
(0.1525 0.0575 -1.4991e-19)
(0.1575 0.0575 -1.4991e-19)
(0.1625 0.0575 -1.4991e-19)
(0.1675 0.0575 -1.4991e-19)
(0.1725 0.0575 0)
(0.1775 0.0575 -1.4991e-19)
(0.1825 0.0575 -1.4991e-19)
(0.1875 0.0575 -1.4991e-19)
(0.1925 0.0575 -1.4991e-19)
(0.1975 0.0575 -1.4991e-19)
(0.0025 0.0625 0)
(0.0075 0.0625 2.87774e-19)
(0.0125 0.0625 0)
(0.0175 0.0625 1.4991e-19)
(0.0225 0.0625 1.4991e-19)
(0.0275 0.0625 1.4991e-19)
(0.0325 0.0625 0)
(0.0375 0.0625 0)
(0.0425 0.0625 0)
(0.0475 0.0625 0)
(0.0525 0.0625 0)
(0.0575 0.0625 1.4991e-19)
(0.0625 0.0625 0)
(0.0675 0.0625 0)
(0.0725 0.0625 0)
(0.0775 0.0625 0)
(0.0825 0.0625 0)
(0.0875 0.0625 0)
(0.0925 0.0625 0)
(0.0975 0.0625 0)
(0.1025 0.0625 0)
(0.1075 0.0625 0)
(0.1125 0.0625 0)
(0.1175 0.0625 0)
(0.1225 0.0625 0)
(0.1275 0.0625 0)
(0.1325 0.0625 0)
(0.1375 0.0625 0)
(0.1425 0.0625 2.9982e-19)
(0.1475 0.0625 0)
(0.1525 0.0625 0)
(0.1575 0.0625 0)
(0.1625 0.0625 0)
(0.1675 0.0625 0)
(0.1725 0.0625 0)
(0.1775 0.0625 0)
(0.1825 0.0625 0)
(0.1875 0.0625 0)
(0.1925 0.0625 0)
(0.1975 0.0625 0)
(0.0025 0.0675 0)
(0.0075 0.0675 2.87774e-19)
(0.0125 0.0675 0)
(0.0175 0.0675 1.4991e-19)
(0.0225 0.0675 1.4991e-19)
(0.0275 0.0675 1.4991e-19)
(0.0325 0.0675 0)
(0.0375 0.0675 0)
(0.0425 0.0675 0)
(0.0475 0.0675 0)
(0.0525 0.0675 0)
(0.0575 0.0675 1.4991e-19)
(0.0625 0.0675 0)
(0.0675 0.0675 0)
(0.0725 0.0675 0)
(0.0775 0.0675 0)
(0.0825 0.0675 0)
(0.0875 0.0675 0)
(0.0925 0.0675 0)
(0.0975 0.0675 0)
(0.1025 0.0675 0)
(0.1075 0.0675 0)
(0.1125 0.0675 0)
(0.1175 0.0675 0)
(0.1225 0.0675 0)
(0.1275 0.0675 0)
(0.1325 0.0675 0)
(0.1375 0.0675 0)
(0.1425 0.0675 2.9982e-19)
(0.1475 0.0675 0)
(0.1525 0.0675 0)
(0.1575 0.0675 0)
(0.1625 0.0675 0)
(0.1675 0.0675 0)
(0.1725 0.0675 0)
(0.1775 0.0675 0)
(0.1825 0.0675 0)
(0.1875 0.0675 0)
(0.1925 0.0675 0)
(0.1975 0.0675 0)
(0.0025 0.0725 0)
(0.0075 0.0725 1.20467e-20)
(0.0125 0.0725 1.20467e-20)
(0.0175 0.0725 0)
(0.0225 0.0725 0)
(0.0275 0.0725 0)
(0.0325 0.0725 0)
(0.0375 0.0725 0)
(0.0425 0.0725 0)
(0.0475 0.0725 0)
(0.0525 0.0725 0)
(0.0575 0.0725 0)
(0.0625 0.0725 0)
(0.0675 0.0725 0)
(0.0725 0.0725 0)
(0.0775 0.0725 0)
(0.0825 0.0725 0)
(0.0875 0.0725 -2.87774e-19)
(0.0925 0.0725 0)
(0.0975 0.0725 0)
(0.1025 0.0725 -2.87774e-19)
(0.1075 0.0725 0)
(0.1125 0.0725 0)
(0.1175 0.0725 -2.9982e-19)
(0.1225 0.0725 0)
(0.1275 0.0725 0)
(0.1325 0.0725 0)
(0.1375 0.0725 0)
(0.1425 0.0725 0)
(0.1475 0.0725 0)
(0.1525 0.0725 0)
(0.1575 0.0725 0)
(0.1625 0.0725 0)
(0.1675 0.0725 0)
(0.1725 0.0725 0)
(0.1775 0.0725 0)
(0.1825 0.0725 0)
(0.1875 0.0725 0)
(0.1925 0.0725 0)
(0.1975 0.0725 0)
(0.0025 0.0775 0)
(0.0075 0.0775 2.87774e-19)
(0.0125 0.0775 0)
(0.0175 0.0775 1.4991e-19)
(0.0225 0.0775 1.4991e-19)
(0.0275 0.0775 1.4991e-19)
(0.0325 0.0775 0)
(0.0375 0.0775 0)
(0.0425 0.0775 0)
(0.0475 0.0775 0)
(0.0525 0.0775 0)
(0.0575 0.0775 1.4991e-19)
(0.0625 0.0775 0)
(0.0675 0.0775 0)
(0.0725 0.0775 0)
(0.0775 0.0775 0)
(0.0825 0.0775 0)
(0.0875 0.0775 0)
(0.0925 0.0775 0)
(0.0975 0.0775 0)
(0.1025 0.0775 0)
(0.1075 0.0775 0)
(0.1125 0.0775 0)
(0.1175 0.0775 0)
(0.1225 0.0775 0)
(0.1275 0.0775 0)
(0.1325 0.0775 0)
(0.1375 0.0775 0)
(0.1425 0.0775 2.9982e-19)
(0.1475 0.0775 0)
(0.1525 0.0775 0)
(0.1575 0.0775 0)
(0.1625 0.0775 0)
(0.1675 0.0775 0)
(0.1725 0.0775 0)
(0.1775 0.0775 0)
(0.1825 0.0775 0)
(0.1875 0.0775 0)
(0.1925 0.0775 0)
(0.1975 0.0775 0)
(0.0025 0.0825 0)
(0.0075 0.0825 2.87774e-19)
(0.0125 0.0825 0)
(0.0175 0.0825 1.4991e-19)
(0.0225 0.0825 1.4991e-19)
(0.0275 0.0825 1.4991e-19)
(0.0325 0.0825 0)
(0.0375 0.0825 0)
(0.0425 0.0825 0)
(0.0475 0.0825 0)
(0.0525 0.0825 0)
(0.0575 0.0825 1.4991e-19)
(0.0625 0.0825 0)
(0.0675 0.0825 0)
(0.0725 0.0825 0)
(0.0775 0.0825 0)
(0.0825 0.0825 0)
(0.0875 0.0825 0)
(0.0925 0.0825 0)
(0.0975 0.0825 0)
(0.1025 0.0825 0)
(0.1075 0.0825 0)
(0.1125 0.0825 0)
(0.1175 0.0825 0)
(0.1225 0.0825 0)
(0.1275 0.0825 0)
(0.1325 0.0825 0)
(0.1375 0.0825 0)
(0.1425 0.0825 2.9982e-19)
(0.1475 0.0825 0)
(0.1525 0.0825 0)
(0.1575 0.0825 0)
(0.1625 0.0825 0)
(0.1675 0.0825 0)
(0.1725 0.0825 0)
(0.1775 0.0825 0)
(0.1825 0.0825 0)
(0.1875 0.0825 0)
(0.1925 0.0825 0)
(0.1975 0.0825 0)
(0.0025 0.0875 0)
(0.0075 0.0875 0)
(0.0125 0.0875 0)
(0.0175 0.0875 0)
(0.0225 0.0875 0)
(0.0275 0.0875 0)
(0.0325 0.0875 0)
(0.0375 0.0875 0)
(0.0425 0.0875 0)
(0.0475 0.0875 0)
(0.0525 0.0875 0)
(0.0575 0.0875 0)
(0.0625 0.0875 0)
(0.0675 0.0875 0)
(0.0725 0.0875 2.87774e-19)
(0.0775 0.0875 0)
(0.0825 0.0875 0)
(0.0875 0.0875 0)
(0.0925 0.0875 0)
(0.0975 0.0875 0)
(0.1025 0.0875 0)
(0.1075 0.0875 0)
(0.1125 0.0875 0)
(0.1175 0.0875 -2.87774e-19)
(0.1225 0.0875 0)
(0.1275 0.0875 0)
(0.1325 0.0875 0)
(0.1375 0.0875 0)
(0.1425 0.0875 0)
(0.1475 0.0875 0)
(0.1525 0.0875 0)
(0.1575 0.0875 0)
(0.1625 0.0875 0)
(0.1675 0.0875 0)
(0.1725 0.0875 0)
(0.1775 0.0875 0)
(0.1825 0.0875 0)
(0.1875 0.0875 0)
(0.1925 0.0875 0)
(0.1975 0.0875 0)
(0.0025 0.0925 0)
(0.0075 0.0925 2.87774e-19)
(0.0125 0.0925 0)
(0.0175 0.0925 1.4991e-19)
(0.0225 0.0925 1.4991e-19)
(0.0275 0.0925 1.4991e-19)
(0.0325 0.0925 0)
(0.0375 0.0925 0)
(0.0425 0.0925 0)
(0.0475 0.0925 0)
(0.0525 0.0925 0)
(0.0575 0.0925 1.4991e-19)
(0.0625 0.0925 0)
(0.0675 0.0925 0)
(0.0725 0.0925 0)
(0.0775 0.0925 0)
(0.0825 0.0925 0)
(0.0875 0.0925 0)
(0.0925 0.0925 0)
(0.0975 0.0925 0)
(0.1025 0.0925 0)
(0.1075 0.0925 0)
(0.1125 0.0925 0)
(0.1175 0.0925 0)
(0.1225 0.0925 0)
(0.1275 0.0925 0)
(0.1325 0.0925 0)
(0.1375 0.0925 0)
(0.1425 0.0925 2.9982e-19)
(0.1475 0.0925 0)
(0.1525 0.0925 0)
(0.1575 0.0925 0)
(0.1625 0.0925 0)
(0.1675 0.0925 0)
(0.1725 0.0925 0)
(0.1775 0.0925 0)
(0.1825 0.0925 0)
(0.1875 0.0925 0)
(0.1925 0.0925 0)
(0.1975 0.0925 0)
(0.0025 0.0975 0)
(0.0075 0.0975 2.87774e-19)
(0.0125 0.0975 0)
(0.0175 0.0975 1.4991e-19)
(0.0225 0.0975 1.4991e-19)
(0.0275 0.0975 1.4991e-19)
(0.0325 0.0975 0)
(0.0375 0.0975 0)
(0.0425 0.0975 0)
(0.0475 0.0975 0)
(0.0525 0.0975 0)
(0.0575 0.0975 1.4991e-19)
(0.0625 0.0975 0)
(0.0675 0.0975 0)
(0.0725 0.0975 0)
(0.0775 0.0975 0)
(0.0825 0.0975 0)
(0.0875 0.0975 0)
(0.0925 0.0975 0)
(0.0975 0.0975 0)
(0.1025 0.0975 0)
(0.1075 0.0975 0)
(0.1125 0.0975 0)
(0.1175 0.0975 0)
(0.1225 0.0975 0)
(0.1275 0.0975 0)
(0.1325 0.0975 0)
(0.1375 0.0975 0)
(0.1425 0.0975 2.9982e-19)
(0.1475 0.0975 0)
(0.1525 0.0975 0)
(0.1575 0.0975 0)
(0.1625 0.0975 0)
(0.1675 0.0975 0)
(0.1725 0.0975 0)
(0.1775 0.0975 0)
(0.1825 0.0975 0)
(0.1875 0.0975 0)
(0.1925 0.0975 0)
(0.1975 0.0975 0)
(0.0025 0.1025 0)
(0.0075 0.1025 0)
(0.0125 0.1025 0)
(0.0175 0.1025 0)
(0.0225 0.1025 0)
(0.0275 0.1025 0)
(0.0325 0.1025 0)
(0.0375 0.1025 0)
(0.0425 0.1025 0)
(0.0475 0.1025 0)
(0.0525 0.1025 0)
(0.0575 0.1025 0)
(0.0625 0.1025 0)
(0.0675 0.1025 0)
(0.0725 0.1025 2.87774e-19)
(0.0775 0.1025 0)
(0.0825 0.1025 0)
(0.0875 0.1025 0)
(0.0925 0.1025 0)
(0.0975 0.1025 0)
(0.1025 0.1025 0)
(0.1075 0.1025 0)
(0.1125 0.1025 0)
(0.1175 0.1025 -2.87774e-19)
(0.1225 0.1025 0)
(0.1275 0.1025 0)
(0.1325 0.1025 0)
(0.1375 0.1025 0)
(0.1425 0.1025 0)
(0.1475 0.1025 0)
(0.1525 0.1025 0)
(0.1575 0.1025 0)
(0.1625 0.1025 0)
(0.1675 0.1025 0)
(0.1725 0.1025 0)
(0.1775 0.1025 0)
(0.1825 0.1025 0)
(0.1875 0.1025 0)
(0.1925 0.1025 0)
(0.1975 0.1025 0)
(0.0025 0.1075 0)
(0.0075 0.1075 2.87774e-19)
(0.0125 0.1075 0)
(0.0175 0.1075 1.4991e-19)
(0.0225 0.1075 1.4991e-19)
(0.0275 0.1075 1.4991e-19)
(0.0325 0.1075 0)
(0.0375 0.1075 0)
(0.0425 0.1075 0)
(0.0475 0.1075 0)
(0.0525 0.1075 0)
(0.0575 0.1075 1.4991e-19)
(0.0625 0.1075 0)
(0.0675 0.1075 0)
(0.0725 0.1075 0)
(0.0775 0.1075 0)
(0.0825 0.1075 0)
(0.0875 0.1075 0)
(0.0925 0.1075 0)
(0.0975 0.1075 0)
(0.1025 0.1075 0)
(0.1075 0.1075 0)
(0.1125 0.1075 0)
(0.1175 0.1075 0)
(0.1225 0.1075 0)
(0.1275 0.1075 0)
(0.1325 0.1075 0)
(0.1375 0.1075 0)
(0.1425 0.1075 2.9982e-19)
(0.1475 0.1075 0)
(0.1525 0.1075 0)
(0.1575 0.1075 0)
(0.1625 0.1075 0)
(0.1675 0.1075 0)
(0.1725 0.1075 0)
(0.1775 0.1075 0)
(0.1825 0.1075 0)
(0.1875 0.1075 0)
(0.1925 0.1075 0)
(0.1975 0.1075 0)
(0.0025 0.1125 0)
(0.0075 0.1125 2.87774e-19)
(0.0125 0.1125 0)
(0.0175 0.1125 1.4991e-19)
(0.0225 0.1125 1.4991e-19)
(0.0275 0.1125 1.4991e-19)
(0.0325 0.1125 0)
(0.0375 0.1125 0)
(0.0425 0.1125 0)
(0.0475 0.1125 0)
(0.0525 0.1125 0)
(0.0575 0.1125 1.4991e-19)
(0.0625 0.1125 0)
(0.0675 0.1125 0)
(0.0725 0.1125 0)
(0.0775 0.1125 0)
(0.0825 0.1125 0)
(0.0875 0.1125 0)
(0.0925 0.1125 0)
(0.0975 0.1125 0)
(0.1025 0.1125 0)
(0.1075 0.1125 0)
(0.1125 0.1125 0)
(0.1175 0.1125 0)
(0.1225 0.1125 0)
(0.1275 0.1125 0)
(0.1325 0.1125 0)
(0.1375 0.1125 0)
(0.1425 0.1125 2.9982e-19)
(0.1475 0.1125 0)
(0.1525 0.1125 0)
(0.1575 0.1125 0)
(0.1625 0.1125 0)
(0.1675 0.1125 0)
(0.1725 0.1125 0)
(0.1775 0.1125 0)
(0.1825 0.1125 0)
(0.1875 0.1125 0)
(0.1925 0.1125 0)
(0.1975 0.1125 0)
(0.0025 0.1175 -6.02335e-21)
(0.0075 0.1175 -1.20467e-20)
(0.0125 0.1175 -1.20467e-20)
(0.0175 0.1175 0)
(0.0225 0.1175 0)
(0.0275 0.1175 1.20467e-20)
(0.0325 0.1175 0)
(0.0375 0.1175 0)
(0.0425 0.1175 0)
(0.0475 0.1175 0)
(0.0525 0.1175 0)
(0.0575 0.1175 0)
(0.0625 0.1175 0)
(0.0675 0.1175 0)
(0.0725 0.1175 2.9982e-19)
(0.0775 0.1175 0)
(0.0825 0.1175 0)
(0.0875 0.1175 2.87774e-19)
(0.0925 0.1175 0)
(0.0975 0.1175 0)
(0.1025 0.1175 2.87774e-19)
(0.1075 0.1175 0)
(0.1125 0.1175 0)
(0.1175 0.1175 0)
(0.1225 0.1175 0)
(0.1275 0.1175 0)
(0.1325 0.1175 0)
(0.1375 0.1175 0)
(0.1425 0.1175 1.4991e-19)
(0.1475 0.1175 0)
(0.1525 0.1175 0)
(0.1575 0.1175 0)
(0.1625 0.1175 0)
(0.1675 0.1175 0)
(0.1725 0.1175 1.4991e-19)
(0.1775 0.1175 0)
(0.1825 0.1175 0)
(0.1875 0.1175 0)
(0.1925 0.1175 0)
(0.1975 0.1175 0)
(0.0025 0.1225 0)
(0.0075 0.1225 2.87774e-19)
(0.0125 0.1225 0)
(0.0175 0.1225 1.4991e-19)
(0.0225 0.1225 1.4991e-19)
(0.0275 0.1225 1.4991e-19)
(0.0325 0.1225 0)
(0.0375 0.1225 0)
(0.0425 0.1225 0)
(0.0475 0.1225 0)
(0.0525 0.1225 0)
(0.0575 0.1225 1.4991e-19)
(0.0625 0.1225 0)
(0.0675 0.1225 0)
(0.0725 0.1225 0)
(0.0775 0.1225 0)
(0.0825 0.1225 0)
(0.0875 0.1225 0)
(0.0925 0.1225 0)
(0.0975 0.1225 0)
(0.1025 0.1225 0)
(0.1075 0.1225 0)
(0.1125 0.1225 0)
(0.1175 0.1225 0)
(0.1225 0.1225 0)
(0.1275 0.1225 0)
(0.1325 0.1225 0)
(0.1375 0.1225 0)
(0.1425 0.1225 2.9982e-19)
(0.1475 0.1225 0)
(0.1525 0.1225 0)
(0.1575 0.1225 0)
(0.1625 0.1225 0)
(0.1675 0.1225 0)
(0.1725 0.1225 0)
(0.1775 0.1225 0)
(0.1825 0.1225 0)
(0.1875 0.1225 0)
(0.1925 0.1225 0)
(0.1975 0.1225 0)
(0.0025 0.1275 0)
(0.0075 0.1275 2.87774e-19)
(0.0125 0.1275 0)
(0.0175 0.1275 1.4991e-19)
(0.0225 0.1275 1.4991e-19)
(0.0275 0.1275 1.4991e-19)
(0.0325 0.1275 0)
(0.0375 0.1275 0)
(0.0425 0.1275 0)
(0.0475 0.1275 0)
(0.0525 0.1275 0)
(0.0575 0.1275 1.4991e-19)
(0.0625 0.1275 0)
(0.0675 0.1275 0)
(0.0725 0.1275 0)
(0.0775 0.1275 0)
(0.0825 0.1275 0)
(0.0875 0.1275 0)
(0.0925 0.1275 0)
(0.0975 0.1275 0)
(0.1025 0.1275 0)
(0.1075 0.1275 0)
(0.1125 0.1275 0)
(0.1175 0.1275 0)
(0.1225 0.1275 0)
(0.1275 0.1275 0)
(0.1325 0.1275 0)
(0.1375 0.1275 0)
(0.1425 0.1275 2.9982e-19)
(0.1475 0.1275 0)
(0.1525 0.1275 0)
(0.1575 0.1275 0)
(0.1625 0.1275 0)
(0.1675 0.1275 0)
(0.1725 0.1275 0)
(0.1775 0.1275 0)
(0.1825 0.1275 0)
(0.1875 0.1275 0)
(0.1925 0.1275 0)
(0.1975 0.1275 0)
(0.0025 0.1325 0)
(0.0075 0.1325 2.87774e-19)
(0.0125 0.1325 0)
(0.0175 0.1325 1.4991e-19)
(0.0225 0.1325 1.4991e-19)
(0.0275 0.1325 1.4991e-19)
(0.0325 0.1325 0)
(0.0375 0.1325 0)
(0.0425 0.1325 0)
(0.0475 0.1325 0)
(0.0525 0.1325 0)
(0.0575 0.1325 1.4991e-19)
(0.0625 0.1325 0)
(0.0675 0.1325 0)
(0.0725 0.1325 0)
(0.0775 0.1325 0)
(0.0825 0.1325 0)
(0.0875 0.1325 0)
(0.0925 0.1325 0)
(0.0975 0.1325 0)
(0.1025 0.1325 0)
(0.1075 0.1325 0)
(0.1125 0.1325 0)
(0.1175 0.1325 0)
(0.1225 0.1325 0)
(0.1275 0.1325 0)
(0.1325 0.1325 0)
(0.1375 0.1325 0)
(0.1425 0.1325 2.9982e-19)
(0.1475 0.1325 0)
(0.1525 0.1325 0)
(0.1575 0.1325 0)
(0.1625 0.1325 0)
(0.1675 0.1325 0)
(0.1725 0.1325 0)
(0.1775 0.1325 0)
(0.1825 0.1325 0)
(0.1875 0.1325 0)
(0.1925 0.1325 0)
(0.1975 0.1325 0)
(0.0025 0.1375 0)
(0.0075 0.1375 2.87774e-19)
(0.0125 0.1375 0)
(0.0175 0.1375 1.4991e-19)
(0.0225 0.1375 1.4991e-19)
(0.0275 0.1375 1.4991e-19)
(0.0325 0.1375 0)
(0.0375 0.1375 0)
(0.0425 0.1375 0)
(0.0475 0.1375 0)
(0.0525 0.1375 0)
(0.0575 0.1375 1.4991e-19)
(0.0625 0.1375 0)
(0.0675 0.1375 0)
(0.0725 0.1375 0)
(0.0775 0.1375 0)
(0.0825 0.1375 0)
(0.0875 0.1375 0)
(0.0925 0.1375 0)
(0.0975 0.1375 0)
(0.1025 0.1375 0)
(0.1075 0.1375 0)
(0.1125 0.1375 0)
(0.1175 0.1375 0)
(0.1225 0.1375 0)
(0.1275 0.1375 0)
(0.1325 0.1375 0)
(0.1375 0.1375 0)
(0.1425 0.1375 2.9982e-19)
(0.1475 0.1375 0)
(0.1525 0.1375 0)
(0.1575 0.1375 0)
(0.1625 0.1375 0)
(0.1675 0.1375 0)
(0.1725 0.1375 0)
(0.1775 0.1375 0)
(0.1825 0.1375 0)
(0.1875 0.1375 0)
(0.1925 0.1375 0)
(0.1975 0.1375 0)
(0.0025 0.1425 6.02335e-21)
(0.0075 0.1425 2.9982e-19)
(0.0125 0.1425 0)
(0.0175 0.1425 0)
(0.0225 0.1425 0)
(0.0275 0.1425 -1.4991e-19)
(0.0325 0.1425 -2.9982e-19)
(0.0375 0.1425 0)
(0.0425 0.1425 0)
(0.0475 0.1425 -2.9982e-19)
(0.0525 0.1425 0)
(0.0575 0.1425 0)
(0.0625 0.1425 -2.9982e-19)
(0.0675 0.1425 -2.9982e-19)
(0.0725 0.1425 0)
(0.0775 0.1425 -2.9982e-19)
(0.0825 0.1425 -2.9982e-19)
(0.0875 0.1425 0)
(0.0925 0.1425 -2.9982e-19)
(0.0975 0.1425 -2.9982e-19)
(0.1025 0.1425 0)
(0.1075 0.1425 -2.9982e-19)
(0.1125 0.1425 -2.9982e-19)
(0.1175 0.1425 -1.4991e-19)
(0.1225 0.1425 -2.9982e-19)
(0.1275 0.1425 -2.9982e-19)
(0.1325 0.1425 -2.9982e-19)
(0.1375 0.1425 -2.9982e-19)
(0.1425 0.1425 0)
(0.1475 0.1425 -2.9982e-19)
(0.1525 0.1425 -2.9982e-19)
(0.1575 0.1425 -2.9982e-19)
(0.1625 0.1425 -2.9982e-19)
(0.1675 0.1425 -2.9982e-19)
(0.1725 0.1425 2.9982e-19)
(0.1775 0.1425 -2.9982e-19)
(0.1825 0.1425 -2.9982e-19)
(0.1875 0.1425 -2.9982e-19)
(0.1925 0.1425 -2.9982e-19)
(0.1975 0.1425 -2.9982e-19)
(0.0025 0.1475 0)
(0.0075 0.1475 2.87774e-19)
(0.0125 0.1475 0)
(0.0175 0.1475 1.4991e-19)
(0.0225 0.1475 1.4991e-19)
(0.0275 0.1475 1.4991e-19)
(0.0325 0.1475 0)
(0.0375 0.1475 0)
(0.0425 0.1475 0)
(0.0475 0.1475 0)
(0.0525 0.1475 0)
(0.0575 0.1475 1.4991e-19)
(0.0625 0.1475 0)
(0.0675 0.1475 0)
(0.0725 0.1475 0)
(0.0775 0.1475 0)
(0.0825 0.1475 0)
(0.0875 0.1475 0)
(0.0925 0.1475 0)
(0.0975 0.1475 0)
(0.1025 0.1475 0)
(0.1075 0.1475 0)
(0.1125 0.1475 0)
(0.1175 0.1475 0)
(0.1225 0.1475 0)
(0.1275 0.1475 0)
(0.1325 0.1475 0)
(0.1375 0.1475 0)
(0.1425 0.1475 2.9982e-19)
(0.1475 0.1475 0)
(0.1525 0.1475 0)
(0.1575 0.1475 0)
(0.1625 0.1475 0)
(0.1675 0.1475 0)
(0.1725 0.1475 0)
(0.1775 0.1475 0)
(0.1825 0.1475 0)
(0.1875 0.1475 0)
(0.1925 0.1475 0)
(0.1975 0.1475 0)
(0.0025 0.1525 0)
(0.0075 0.1525 2.87774e-19)
(0.0125 0.1525 0)
(0.0175 0.1525 1.4991e-19)
(0.0225 0.1525 1.4991e-19)
(0.0275 0.1525 1.4991e-19)
(0.0325 0.1525 0)
(0.0375 0.1525 0)
(0.0425 0.1525 0)
(0.0475 0.1525 0)
(0.0525 0.1525 0)
(0.0575 0.1525 1.4991e-19)
(0.0625 0.1525 0)
(0.0675 0.1525 0)
(0.0725 0.1525 0)
(0.0775 0.1525 0)
(0.0825 0.1525 0)
(0.0875 0.1525 0)
(0.0925 0.1525 0)
(0.0975 0.1525 0)
(0.1025 0.1525 0)
(0.1075 0.1525 0)
(0.1125 0.1525 0)
(0.1175 0.1525 0)
(0.1225 0.1525 0)
(0.1275 0.1525 0)
(0.1325 0.1525 0)
(0.1375 0.1525 0)
(0.1425 0.1525 2.9982e-19)
(0.1475 0.1525 0)
(0.1525 0.1525 0)
(0.1575 0.1525 0)
(0.1625 0.1525 0)
(0.1675 0.1525 0)
(0.1725 0.1525 0)
(0.1775 0.1525 0)
(0.1825 0.1525 0)
(0.1875 0.1525 0)
(0.1925 0.1525 0)
(0.1975 0.1525 0)
(0.0025 0.1575 0)
(0.0075 0.1575 2.87774e-19)
(0.0125 0.1575 0)
(0.0175 0.1575 1.4991e-19)
(0.0225 0.1575 1.4991e-19)
(0.0275 0.1575 1.4991e-19)
(0.0325 0.1575 0)
(0.0375 0.1575 0)
(0.0425 0.1575 0)
(0.0475 0.1575 0)
(0.0525 0.1575 0)
(0.0575 0.1575 1.4991e-19)
(0.0625 0.1575 0)
(0.0675 0.1575 0)
(0.0725 0.1575 0)
(0.0775 0.1575 0)
(0.0825 0.1575 0)
(0.0875 0.1575 0)
(0.0925 0.1575 0)
(0.0975 0.1575 0)
(0.1025 0.1575 0)
(0.1075 0.1575 0)
(0.1125 0.1575 0)
(0.1175 0.1575 0)
(0.1225 0.1575 0)
(0.1275 0.1575 0)
(0.1325 0.1575 0)
(0.1375 0.1575 0)
(0.1425 0.1575 2.9982e-19)
(0.1475 0.1575 0)
(0.1525 0.1575 0)
(0.1575 0.1575 0)
(0.1625 0.1575 0)
(0.1675 0.1575 0)
(0.1725 0.1575 0)
(0.1775 0.1575 0)
(0.1825 0.1575 0)
(0.1875 0.1575 0)
(0.1925 0.1575 0)
(0.1975 0.1575 0)
(0.0025 0.1625 0)
(0.0075 0.1625 2.87774e-19)
(0.0125 0.1625 0)
(0.0175 0.1625 1.4991e-19)
(0.0225 0.1625 1.4991e-19)
(0.0275 0.1625 1.4991e-19)
(0.0325 0.1625 0)
(0.0375 0.1625 0)
(0.0425 0.1625 0)
(0.0475 0.1625 0)
(0.0525 0.1625 0)
(0.0575 0.1625 1.4991e-19)
(0.0625 0.1625 0)
(0.0675 0.1625 0)
(0.0725 0.1625 0)
(0.0775 0.1625 0)
(0.0825 0.1625 0)
(0.0875 0.1625 0)
(0.0925 0.1625 0)
(0.0975 0.1625 0)
(0.1025 0.1625 0)
(0.1075 0.1625 0)
(0.1125 0.1625 0)
(0.1175 0.1625 0)
(0.1225 0.1625 0)
(0.1275 0.1625 0)
(0.1325 0.1625 0)
(0.1375 0.1625 0)
(0.1425 0.1625 2.9982e-19)
(0.1475 0.1625 0)
(0.1525 0.1625 0)
(0.1575 0.1625 0)
(0.1625 0.1625 0)
(0.1675 0.1625 0)
(0.1725 0.1625 0)
(0.1775 0.1625 0)
(0.1825 0.1625 0)
(0.1875 0.1625 0)
(0.1925 0.1625 0)
(0.1975 0.1625 0)
(0.0025 0.1675 0)
(0.0075 0.1675 2.87774e-19)
(0.0125 0.1675 0)
(0.0175 0.1675 1.4991e-19)
(0.0225 0.1675 1.4991e-19)
(0.0275 0.1675 1.4991e-19)
(0.0325 0.1675 0)
(0.0375 0.1675 0)
(0.0425 0.1675 0)
(0.0475 0.1675 0)
(0.0525 0.1675 0)
(0.0575 0.1675 1.4991e-19)
(0.0625 0.1675 0)
(0.0675 0.1675 0)
(0.0725 0.1675 0)
(0.0775 0.1675 0)
(0.0825 0.1675 0)
(0.0875 0.1675 0)
(0.0925 0.1675 0)
(0.0975 0.1675 0)
(0.1025 0.1675 0)
(0.1075 0.1675 0)
(0.1125 0.1675 0)
(0.1175 0.1675 0)
(0.1225 0.1675 0)
(0.1275 0.1675 0)
(0.1325 0.1675 0)
(0.1375 0.1675 0)
(0.1425 0.1675 2.9982e-19)
(0.1475 0.1675 0)
(0.1525 0.1675 0)
(0.1575 0.1675 0)
(0.1625 0.1675 0)
(0.1675 0.1675 0)
(0.1725 0.1675 0)
(0.1775 0.1675 0)
(0.1825 0.1675 0)
(0.1875 0.1675 0)
(0.1925 0.1675 0)
(0.1975 0.1675 0)
(0.0025 0.1725 6.02335e-21)
(0.0075 0.1725 2.9982e-19)
(0.0125 0.1725 0)
(0.0175 0.1725 0)
(0.0225 0.1725 0)
(0.0275 0.1725 -1.4991e-19)
(0.0325 0.1725 0)
(0.0375 0.1725 0)
(0.0425 0.1725 0)
(0.0475 0.1725 0)
(0.0525 0.1725 0)
(0.0575 0.1725 0)
(0.0625 0.1725 0)
(0.0675 0.1725 0)
(0.0725 0.1725 0)
(0.0775 0.1725 0)
(0.0825 0.1725 0)
(0.0875 0.1725 0)
(0.0925 0.1725 0)
(0.0975 0.1725 0)
(0.1025 0.1725 0)
(0.1075 0.1725 0)
(0.1125 0.1725 0)
(0.1175 0.1725 -1.4991e-19)
(0.1225 0.1725 0)
(0.1275 0.1725 0)
(0.1325 0.1725 0)
(0.1375 0.1725 0)
(0.1425 0.1725 -2.9982e-19)
(0.1475 0.1725 0)
(0.1525 0.1725 0)
(0.1575 0.1725 0)
(0.1625 0.1725 0)
(0.1675 0.1725 0)
(0.1725 0.1725 0)
(0.1775 0.1725 0)
(0.1825 0.1725 0)
(0.1875 0.1725 0)
(0.1925 0.1725 0)
(0.1975 0.1725 0)
(0.0025 0.1775 0)
(0.0075 0.1775 2.87774e-19)
(0.0125 0.1775 0)
(0.0175 0.1775 1.4991e-19)
(0.0225 0.1775 1.4991e-19)
(0.0275 0.1775 1.4991e-19)
(0.0325 0.1775 0)
(0.0375 0.1775 0)
(0.0425 0.1775 0)
(0.0475 0.1775 0)
(0.0525 0.1775 0)
(0.0575 0.1775 1.4991e-19)
(0.0625 0.1775 0)
(0.0675 0.1775 0)
(0.0725 0.1775 0)
(0.0775 0.1775 0)
(0.0825 0.1775 0)
(0.0875 0.1775 0)
(0.0925 0.1775 0)
(0.0975 0.1775 0)
(0.1025 0.1775 0)
(0.1075 0.1775 0)
(0.1125 0.1775 0)
(0.1175 0.1775 0)
(0.1225 0.1775 0)
(0.1275 0.1775 0)
(0.1325 0.1775 0)
(0.1375 0.1775 0)
(0.1425 0.1775 2.9982e-19)
(0.1475 0.1775 0)
(0.1525 0.1775 0)
(0.1575 0.1775 0)
(0.1625 0.1775 0)
(0.1675 0.1775 0)
(0.1725 0.1775 0)
(0.1775 0.1775 0)
(0.1825 0.1775 0)
(0.1875 0.1775 0)
(0.1925 0.1775 0)
(0.1975 0.1775 0)
(0.0025 0.1825 0)
(0.0075 0.1825 2.87774e-19)
(0.0125 0.1825 0)