/*--------------------------------*- C++ -*----------------------------------*\
  =========                 |
  \\      /  F ield         | OpenFOAM: The Open Source CFD Toolbox
   \\    /   O peration     | Website:  https://openfoam.org
    \\  /    A nd           | Version:  11
     \\/     M anipulation  |
\*---------------------------------------------------------------------------*/
FoamFile
{
    format      ascii;
    class       volScalarField;
    location    "0";
    object      Ccx;
}
// * * * * * * * * * * * * * * * * * * * * * * * * * * * * * * * * * * * * * //

dimensions      [0 1 0 0 0 0 0];

internalField   nonuniform List<scalar> 
4800
(
0.0025
0.0075
0.0125
0.0175
0.0225
0.0275
0.0325
0.0375
0.0425
0.0475
0.0525
0.0575
0.0625
0.0675
0.0725
0.0775
0.0825
0.0875
0.0925
0.0975
0.1025
0.1075
0.1125
0.1175
0.1225
0.1275
0.1325
0.1375
0.1425
0.1475
0.1525
0.1575
0.1625
0.1675
0.1725
0.1775
0.1825
0.1875
0.1925
0.1975
0.0025
0.0075
0.0125
0.0175
0.0225
0.0275
0.0325
0.0375
0.0425
0.0475
0.0525
0.0575
0.0625
0.0675
0.0725
0.0775
0.0825
0.0875
0.0925
0.0975
0.1025
0.1075
0.1125
0.1175
0.1225
0.1275
0.1325
0.1375
0.1425
0.1475
0.1525
0.1575
0.1625
0.1675
0.1725
0.1775
0.1825
0.1875
0.1925
0.1975
0.0025
0.0075
0.0125
0.0175
0.0225
0.0275
0.0325
0.0375
0.0425
0.0475
0.0525
0.0575
0.0625
0.0675
0.0725
0.0775
0.0825
0.0875
0.0925
0.0975
0.1025
0.1075
0.1125
0.1175
0.1225
0.1275
0.1325
0.1375
0.1425
0.1475
0.1525
0.1575
0.1625
0.1675
0.1725
0.1775
0.1825
0.1875
0.1925
0.1975
0.0025
0.0075
0.0125
0.0175
0.0225
0.0275
0.0325
0.0375
0.0425
0.0475
0.0525
0.0575
0.0625
0.0675
0.0725
0.0775
0.0825
0.0875
0.0925
0.0975
0.1025
0.1075
0.1125
0.1175
0.1225
0.1275
0.1325
0.1375
0.1425
0.1475
0.1525
0.1575
0.1625
0.1675
0.1725
0.1775
0.1825
0.1875
0.1925
0.1975
0.0025
0.0075
0.0125
0.0175
0.0225
0.0275
0.0325
0.0375
0.0425
0.0475
0.0525
0.0575
0.0625
0.0675
0.0725
0.0775
0.0825
0.0875
0.0925
0.0975
0.1025
0.1075
0.1125
0.1175
0.1225
0.1275
0.1325
0.1375
0.1425
0.1475
0.1525
0.1575
0.1625
0.1675
0.1725
0.1775
0.1825
0.1875
0.1925
0.1975
0.0025
0.0075
0.0125
0.0175
0.0225
0.0275
0.0325
0.0375
0.0425
0.0475
0.0525
0.0575
0.0625
0.0675
0.0725
0.0775
0.0825
0.0875
0.0925
0.0975
0.1025
0.1075
0.1125
0.1175
0.1225
0.1275
0.1325
0.1375
0.1425
0.1475
0.1525
0.1575
0.1625
0.1675
0.1725
0.1775
0.1825
0.1875
0.1925
0.1975
0.0025
0.0075
0.0125
0.0175
0.0225
0.0275
0.0325
0.0375
0.0425
0.0475
0.0525
0.0575
0.0625
0.0675
0.0725
0.0775
0.0825
0.0875
0.0925
0.0975
0.1025
0.1075
0.1125
0.1175
0.1225
0.1275
0.1325
0.1375
0.1425
0.1475
0.1525
0.1575
0.1625
0.1675
0.1725
0.1775
0.1825
0.1875
0.1925
0.1975
0.0025
0.0075
0.0125
0.0175
0.0225
0.0275
0.0325
0.0375
0.0425
0.0475
0.0525
0.0575
0.0625
0.0675
0.0725
0.0775
0.0825
0.0875
0.0925
0.0975
0.1025
0.1075
0.1125
0.1175
0.1225
0.1275
0.1325
0.1375
0.1425
0.1475
0.1525
0.1575
0.1625
0.1675
0.1725
0.1775
0.1825
0.1875
0.1925
0.1975
0.0025
0.0075
0.0125
0.0175
0.0225
0.0275
0.0325
0.0375
0.0425
0.0475
0.0525
0.0575
0.0625
0.0675
0.0725
0.0775
0.0825
0.0875
0.0925
0.0975
0.1025
0.1075
0.1125
0.1175
0.1225
0.1275
0.1325
0.1375
0.1425
0.1475
0.1525
0.1575
0.1625
0.1675
0.1725
0.1775
0.1825
0.1875
0.1925
0.1975
0.0025
0.0075
0.0125
0.0175
0.0225
0.0275
0.0325
0.0375
0.0425
0.0475
0.0525
0.0575
0.0625
0.0675
0.0725
0.0775
0.0825
0.0875
0.0925
0.0975
0.1025
0.1075
0.1125
0.1175
0.1225
0.1275
0.1325
0.1375
0.1425
0.1475
0.1525
0.1575
0.1625
0.1675
0.1725
0.1775
0.1825
0.1875
0.1925
0.1975
0.0025
0.0075
0.0125
0.0175
0.0225
0.0275
0.0325
0.0375
0.0425
0.0475
0.0525
0.0575
0.0625
0.0675
0.0725
0.0775
0.0825
0.0875
0.0925
0.0975
0.1025
0.1075
0.1125
0.1175
0.1225
0.1275
0.1325
0.1375
0.1425
0.1475
0.1525
0.1575
0.1625
0.1675
0.1725
0.1775
0.1825
0.1875
0.1925
0.1975
0.0025
0.0075
0.0125
0.0175
0.0225
0.0275
0.0325
0.0375
0.0425
0.0475
0.0525
0.0575
0.0625
0.0675
0.0725
0.0775
0.0825
0.0875
0.0925
0.0975
0.1025
0.1075
0.1125
0.1175
0.1225
0.1275
0.1325
0.1375
0.1425
0.1475
0.1525
0.1575
0.1625
0.1675
0.1725
0.1775
0.1825
0.1875
0.1925
0.1975
0.0025
0.0075
0.0125
0.0175
0.0225
0.0275
0.0325
0.0375
0.0425
0.0475
0.0525
0.0575
0.0625
0.0675
0.0725
0.0775
0.0825
0.0875
0.0925
0.0975
0.1025
0.1075
0.1125
0.1175
0.1225
0.1275
0.1325
0.1375
0.1425
0.1475
0.1525
0.1575
0.1625
0.1675
0.1725
0.1775
0.1825
0.1875
0.1925
0.1975
0.0025
0.0075
0.0125
0.0175
0.0225
0.0275
0.0325
0.0375
0.0425
0.0475
0.0525
0.0575
0.0625
0.0675
0.0725
0.0775
0.0825
0.0875
0.0925
0.0975
0.1025
0.1075
0.1125
0.1175
0.1225
0.1275
0.1325
0.1375
0.1425
0.1475
0.1525
0.1575
0.1625
0.1675
0.1725
0.1775
0.1825
0.1875
0.1925
0.1975
0.0025
0.0075
0.0125
0.0175
0.0225
0.0275
0.0325
0.0375
0.0425
0.0475
0.0525
0.0575
0.0625
0.0675
0.0725
0.0775
0.0825
0.0875
0.0925
0.0975
0.1025
0.1075
0.1125
0.1175
0.1225
0.1275
0.1325
0.1375
0.1425
0.1475
0.1525
0.1575
0.1625
0.1675
0.1725
0.1775
0.1825
0.1875
0.1925
0.1975
0.0025
0.0075
0.0125
0.0175
0.0225
0.0275
0.0325
0.0375
0.0425
0.0475
0.0525
0.0575
0.0625
0.0675
0.0725
0.0775
0.0825
0.0875
0.0925
0.0975
0.1025
0.1075
0.1125
0.1175
0.1225
0.1275
0.1325
0.1375
0.1425
0.1475
0.1525
0.1575
0.1625
0.1675
0.1725
0.1775
0.1825
0.1875
0.1925
0.1975
0.0025
0.0075
0.0125
0.0175
0.0225
0.0275
0.0325
0.0375
0.0425
0.0475
0.0525
0.0575
0.0625
0.0675
0.0725
0.0775
0.0825
0.0875
0.0925
0.0975
0.1025
0.1075
0.1125
0.1175
0.1225
0.1275
0.1325
0.1375
0.1425
0.1475
0.1525
0.1575
0.1625
0.1675
0.1725
0.1775
0.1825
0.1875
0.1925
0.1975
0.0025
0.0075
0.0125
0.0175
0.0225
0.0275
0.0325
0.0375
0.0425
0.0475
0.0525
0.0575
0.0625
0.0675
0.0725
0.0775
0.0825
0.0875
0.0925
0.0975
0.1025
0.1075
0.1125
0.1175
0.1225
0.1275
0.1325
0.1375
0.1425
0.1475
0.1525
0.1575
0.1625
0.1675
0.1725
0.1775
0.1825
0.1875
0.1925
0.1975
0.0025
0.0075
0.0125
0.0175
0.0225
0.0275
0.0325
0.0375
0.0425
0.0475
0.0525
0.0575
0.0625
0.0675
0.0725
0.0775
0.0825
0.0875
0.0925
0.0975
0.1025
0.1075
0.1125
0.1175
0.1225
0.1275
0.1325
0.1375
0.1425
0.1475
0.1525
0.1575
0.1625
0.1675
0.1725
0.1775
0.1825
0.1875
0.1925
0.1975
0.0025
0.0075
0.0125
0.0175
0.0225
0.0275
0.0325
0.0375
0.0425
0.0475
0.0525
0.0575
0.0625
0.0675
0.0725
0.0775
0.0825
0.0875
0.0925
0.0975
0.1025
0.1075
0.1125
0.1175
0.1225
0.1275
0.1325
0.1375
0.1425
0.1475
0.1525
0.1575
0.1625
0.1675
0.1725
0.1775
0.1825
0.1875
0.1925
0.1975
0.0025
0.0075
0.0125
0.0175
0.0225
0.0275
0.0325
0.0375
0.0425
0.0475
0.0525
0.0575
0.0625
0.0675
0.0725
0.0775
0.0825
0.0875
0.0925
0.0975
0.1025
0.1075
0.1125
0.1175
0.1225
0.1275
0.1325
0.1375
0.1425
0.1475
0.1525
0.1575
0.1625
0.1675
0.1725
0.1775
0.1825
0.1875
0.1925
0.1975
0.0025
0.0075
0.0125
0.0175
0.0225
0.0275
0.0325
0.0375
0.0425
0.0475
0.0525
0.0575
0.0625
0.0675
0.0725
0.0775
0.0825
0.0875
0.0925
0.0975
0.1025
0.1075
0.1125
0.1175
0.1225
0.1275
0.1325
0.1375
0.1425
0.1475
0.1525
0.1575
0.1625
0.1675
0.1725
0.1775
0.1825
0.1875
0.1925
0.1975
0.0025
0.0075
0.0125
0.0175
0.0225
0.0275
0.0325
0.0375
0.0425
0.0475
0.0525
0.0575
0.0625
0.0675
0.0725
0.0775
0.0825
0.0875
0.0925
0.0975
0.1025
0.1075
0.1125
0.1175
0.1225
0.1275
0.1325
0.1375
0.1425
0.1475
0.1525
0.1575
0.1625
0.1675
0.1725
0.1775
0.1825
0.1875
0.1925
0.1975
0.0025
0.0075
0.0125
0.0175
0.0225
0.0275
0.0325
0.0375
0.0425
0.0475
0.0525
0.0575
0.0625
0.0675
0.0725
0.0775
0.0825
0.0875
0.0925
0.0975
0.1025
0.1075
0.1125
0.1175
0.1225
0.1275
0.1325
0.1375
0.1425
0.1475
0.1525
0.1575
0.1625
0.1675
0.1725
0.1775
0.1825
0.1875
0.1925
0.1975
0.0025
0.0075
0.0125
0.0175
0.0225
0.0275
0.0325
0.0375
0.0425
0.0475
0.0525
0.0575
0.0625
0.0675
0.0725
0.0775
0.0825
0.0875
0.0925
0.0975
0.1025
0.1075
0.1125
0.1175
0.1225
0.1275
0.1325
0.1375
0.1425
0.1475
0.1525
0.1575
0.1625
0.1675
0.1725
0.1775
0.1825
0.1875
0.1925
0.1975
0.0025
0.0075
0.0125
0.0175
0.0225
0.0275
0.0325
0.0375
0.0425
0.0475
0.0525
0.0575
0.0625
0.0675
0.0725
0.0775
0.0825
0.0875
0.0925
0.0975
0.1025
0.1075
0.1125
0.1175
0.1225
0.1275
0.1325
0.1375
0.1425
0.1475
0.1525
0.1575
0.1625
0.1675
0.1725
0.1775
0.1825
0.1875
0.1925
0.1975
0.0025
0.0075
0.0125
0.0175
0.0225
0.0275
0.0325
0.0375
0.0425
0.0475
0.0525
0.0575
0.0625
0.0675
0.0725
0.0775
0.0825
0.0875
0.0925
0.0975
0.1025
0.1075
0.1125
0.1175
0.1225
0.1275
0.1325
0.1375
0.1425
0.1475
0.1525
0.1575
0.1625
0.1675
0.1725
0.1775
0.1825
0.1875
0.1925
0.1975
0.0025
0.0075
0.0125
0.0175
0.0225
0.0275
0.0325
0.0375
0.0425
0.0475
0.0525
0.0575
0.0625
0.0675
0.0725
0.0775
0.0825
0.0875
0.0925
0.0975
0.1025
0.1075
0.1125
0.1175
0.1225
0.1275
0.1325
0.1375
0.1425
0.1475
0.1525
0.1575
0.1625
0.1675
0.1725
0.1775
0.1825
0.1875
0.1925
0.1975
0.0025
0.0075
0.0125
0.0175
0.0225
0.0275
0.0325
0.0375
0.0425
0.0475
0.0525
0.0575
0.0625
0.0675
0.0725
0.0775
0.0825
0.0875
0.0925
0.0975
0.1025
0.1075
0.1125
0.1175
0.1225
0.1275
0.1325
0.1375
0.1425
0.1475
0.1525
0.1575
0.1625
0.1675
0.1725
0.1775
0.1825
0.1875
0.1925
0.1975
0.0025
0.0075
0.0125
0.0175
0.0225
0.0275
0.0325
0.0375
0.0425
0.0475
0.0525
0.0575
0.0625
0.0675
0.0725
0.0775
0.0825
0.0875
0.0925
0.0975
0.1025
0.1075
0.1125
0.1175
0.1225
0.1275
0.1325
0.1375
0.1425
0.1475
0.1525
0.1575
0.1625
0.1675
0.1725
0.1775
0.1825
0.1875
0.1925
0.1975
0.0025
0.0075
0.0125
0.0175
0.0225
0.0275
0.0325
0.0375
0.0425
0.0475
0.0525
0.0575
0.0625
0.0675
0.0725
0.0775
0.0825
0.0875
0.0925
0.0975
0.1025
0.1075
0.1125
0.1175
0.1225
0.1275
0.1325
0.1375
0.1425
0.1475
0.1525
0.1575
0.1625
0.1675
0.1725
0.1775
0.1825
0.1875
0.1925
0.1975
0.0025
0.0075
0.0125
0.0175
0.0225
0.0275
0.0325
0.0375
0.0425
0.0475
0.0525
0.0575
0.0625
0.0675
0.0725
0.0775
0.0825
0.0875
0.0925
0.0975
0.1025
0.1075
0.1125
0.1175
0.1225
0.1275
0.1325
0.1375
0.1425
0.1475
0.1525
0.1575
0.1625
0.1675
0.1725
0.1775
0.1825
0.1875
0.1925
0.1975
0.0025
0.0075
0.0125
0.0175
0.0225
0.0275
0.0325
0.0375
0.0425
0.0475
0.0525
0.0575
0.0625
0.0675
0.0725
0.0775
0.0825
0.0875
0.0925
0.0975
0.1025
0.1075
0.1125
0.1175
0.1225
0.1275
0.1325
0.1375
0.1425
0.1475
0.1525
0.1575
0.1625
0.1675
0.1725
0.1775
0.1825
0.1875
0.1925
0.1975
0.0025
0.0075
0.0125
0.0175
0.0225
0.0275
0.0325
0.0375
0.0425
0.0475
0.0525
0.0575
0.0625
0.0675
0.0725
0.0775
0.0825
0.0875
0.0925
0.0975
0.1025
0.1075
0.1125
0.1175
0.1225
0.1275
0.1325
0.1375
0.1425
0.1475
0.1525
0.1575
0.1625
0.1675
0.1725
0.1775
0.1825
0.1875
0.1925
0.1975
0.0025
0.0075
0.0125
0.0175
0.0225
0.0275
0.0325
0.0375
0.0425
0.0475
0.0525
0.0575
0.0625
0.0675
0.0725
0.0775
0.0825
0.0875
0.0925
0.0975
0.1025
0.1075
0.1125
0.1175
0.1225
0.1275
0.1325
0.1375
0.1425
0.1475
0.1525
0.1575
0.1625
0.1675
0.1725
0.1775
0.1825
0.1875
0.1925
0.1975
0.0025
0.0075
0.0125
0.0175
0.0225
0.0275
0.0325
0.0375
0.0425
0.0475
0.0525
0.0575
0.0625
0.0675
0.0725
0.0775
0.0825
0.0875
0.0925
0.0975
0.1025
0.1075
0.1125
0.1175
0.1225
0.1275
0.1325
0.1375
0.1425
0.1475
0.1525
0.1575
0.1625
0.1675
0.1725
0.1775
0.1825
0.1875
0.1925
0.1975
0.0025
0.0075
0.0125
0.0175
0.0225
0.0275
0.0325
0.0375
0.0425
0.0475
0.0525
0.0575
0.0625
0.0675
0.0725
0.0775
0.0825
0.0875
0.0925
0.0975
0.1025
0.1075
0.1125
0.1175
0.1225
0.1275
0.1325
0.1375
0.1425
0.1475
0.1525
0.1575
0.1625
0.1675
0.1725
0.1775
0.1825
0.1875
0.1925
0.1975
0.0025
0.0075
0.0125
0.0175
0.0225
0.0275
0.0325
0.0375
0.0425
0.0475
0.0525
0.0575
0.0625
0.0675
0.0725
0.0775
0.0825
0.0875
0.0925
0.0975
0.1025
0.1075
0.1125
0.1175
0.1225
0.1275
0.1325
0.1375
0.1425
0.1475
0.1525
0.1575
0.1625
0.1675
0.1725
0.1775
0.1825
0.1875
0.1925
0.1975
0.0025
0.0075
0.0125
0.0175
0.0225
0.0275
0.0325
0.0375
0.0425
0.0475
0.0525
0.0575
0.0625
0.0675
0.0725
0.0775
0.0825
0.0875
0.0925
0.0975
0.1025
0.1075
0.1125
0.1175
0.1225
0.1275
0.1325
0.1375
0.1425
0.1475
0.1525
0.1575
0.1625
0.1675
0.1725
0.1775
0.1825
0.1875
0.1925
0.1975
0.0025
0.0075
0.0125
0.0175
0.0225
0.0275
0.0325
0.0375
0.0425
0.0475
0.0525
0.0575
0.0625
0.0675
0.0725
0.0775
0.0825
0.0875
0.0925
0.0975
0.1025
0.1075
0.1125
0.1175
0.1225
0.1275
0.1325
0.1375
0.1425
0.1475
0.1525
0.1575
0.1625
0.1675
0.1725
0.1775
0.1825
0.1875
0.1925
0.1975
0.201189
0.203578
0.205985
0.208409
0.210849
0.213304
0.215773
0.218255
0.220749
0.223255
0.225771
0.228296
0.23083
0.233371
0.235919
0.238471
0.241029
0.243589
0.246153
0.248717
0.251283
0.253847
0.256411
0.258971
0.261529
0.264081
0.266629
0.26917
0.271704
0.274229
0.276745
0.279251
0.281745
0.284227
0.286696
0.289151
0.291591
0.294015
0.296422
0.298811
0.20119
0.203582
0.205992
0.208417
0.210859
0.213315
0.215785
0.218267
0.220762
0.223268
0.225783
0.228308
0.230841
0.233381
0.235927
0.238478
0.241034
0.243594
0.246155
0.248718
0.251282
0.253845
0.256406
0.258966
0.261522
0.264073
0.266619
0.269159
0.271692
0.274217
0.276732
0.279238
0.281733
0.284215
0.286685
0.289141
0.291583
0.294008
0.296418
0.29881
0.201192
0.203587
0.205998
0.208426
0.210869
0.213326
0.215797
0.21828
0.220775
0.22328
0.225795
0.228319
0.230851
0.23339
0.235935
0.238485
0.24104
0.243598
0.246158
0.248719
0.251281
0.253842
0.256402
0.25896
0.261515
0.264065
0.26661
0.269149
0.271681
0.274205
0.27672
0.279225
0.28172
0.284203
0.286674
0.289131
0.291574
0.294002
0.296413
0.298808
0.201193
0.203591
0.206005
0.208435
0.210879
0.213337
0.215809
0.218292
0.220787
0.223293
0.225807
0.228331
0.230862
0.2334
0.235944
0.238493
0.241045
0.243602
0.24616
0.24872
0.25128
0.25384
0.256398
0.258955
0.261507
0.264056
0.2666
0.269138
0.271669
0.274193
0.276707
0.279213
0.281708
0.284191
0.286663
0.289121
0.291565
0.293995
0.296409
0.298807
0.201195
0.203595
0.206012
0.208443
0.210889
0.213349
0.215821
0.218305
0.2208
0.223305
0.225819
0.228342
0.230872
0.233409
0.235952
0.2385
0.241051
0.243606
0.246163
0.248721
0.251279
0.253837
0.256394
0.258949
0.2615
0.264048
0.266591
0.269128
0.271658
0.274181
0.276695
0.2792
0.281695
0.284179
0.286651
0.289111
0.291557
0.293988
0.296405
0.298805
0.201197
0.2036
0.206018
0.208452
0.210899
0.21336
0.215833
0.218317
0.220813
0.223318
0.225832
0.228354
0.230883
0.233419
0.23596
0.238507
0.241057
0.24361
0.246165
0.248722
0.251278
0.253835
0.25639
0.258943
0.261493
0.26404
0.266581
0.269117
0.271646
0.274168
0.276682
0.279187
0.281683
0.284167
0.28664
0.289101
0.291548
0.293982
0.2964
0.298803
0.201198
0.203604
0.206025
0.20846
0.210909
0.213371
0.215845
0.21833
0.220825
0.22333
0.225844
0.228365
0.230894
0.233429
0.235969
0.238514
0.241062
0.243614
0.246167
0.248722
0.251278
0.253833
0.256386
0.258938
0.261486
0.264031
0.266571
0.269106
0.271635
0.274156
0.27667
0.279175
0.28167
0.284155
0.286629
0.289091
0.29154
0.293975
0.296396
0.298802
0.2012
0.203608
0.206032
0.208469
0.21092
0.213383
0.215857
0.218342
0.220838
0.223343
0.225856
0.228377
0.230904
0.233438
0.235977
0.238521
0.241068
0.243618
0.24617
0.248723
0.251277
0.25383
0.256382
0.258932
0.261479
0.264023
0.266562
0.269096
0.271623
0.274144
0.276657
0.279162
0.281658
0.284143
0.286617
0.28908
0.291531
0.293968
0.296392
0.2988
0.201201
0.203613
0.206038
0.208478
0.21093
0.213394
0.215869
0.218355
0.220851
0.223355
0.225868
0.228388
0.230915
0.233448
0.235986
0.238528
0.241073
0.243622
0.246172
0.248724
0.251276
0.253828
0.256378
0.258927
0.261472
0.264014
0.266552
0.269085
0.271612
0.274132
0.276645
0.279149
0.281645
0.284131
0.286606
0.28907
0.291522
0.293962
0.296387
0.298799
0.201203
0.203617
0.206045
0.208486
0.21094
0.213405
0.215881
0.218368
0.220863
0.223368
0.22588
0.2284
0.230926
0.233457
0.235994
0.238535
0.241079
0.243626
0.246175
0.248725
0.251275
0.253825
0.256374
0.258921
0.261465
0.264006
0.266543
0.269074
0.2716
0.27412
0.276632
0.279137
0.281632
0.284119
0.286595
0.28906
0.291514
0.293955
0.296383
0.298797
0.201204
0.203621
0.206052
0.208495
0.21095
0.213416
0.215893
0.21838
0.220876
0.22338
0.225892
0.228411
0.230936
0.233467
0.236002
0.238542
0.241085
0.24363
0.246177
0.248726
0.251274
0.253823
0.25637
0.258915
0.261458
0.263998
0.266533
0.269064
0.271589
0.274108
0.27662
0.279124
0.28162
0.284107
0.286584
0.28905
0.291505
0.293948
0.296379
0.298796
0.201206
0.203626
0.206058
0.208504
0.21096
0.213428
0.215905
0.218393
0.220889
0.223393
0.225904
0.228423
0.230947
0.233476
0.236011
0.238549
0.24109
0.243634
0.24618
0.248726
0.251274
0.25382
0.256366
0.25891
0.261451
0.263989
0.266524
0.269053
0.271577
0.274096
0.276607
0.279111
0.281607
0.284095
0.286572
0.28904
0.291496
0.293942
0.296374
0.298794
0.201207
0.20363
0.206065
0.208512
0.21097
0.213439
0.215917
0.218405
0.220901
0.223405
0.225916
0.228434
0.230957
0.233486
0.236019
0.238556
0.241096
0.243638
0.246182
0.248727
0.251273
0.253818
0.256362
0.258904
0.261444
0.263981
0.266514
0.269043
0.271566
0.274084
0.276595
0.279099
0.281595
0.284083
0.286561
0.28903
0.291488
0.293935
0.29637
0.298793
0.201209
0.203634
0.206072
0.208521
0.21098
0.21345
0.215929
0.218418
0.220914
0.223418
0.225928
0.228445
0.230968
0.233496
0.236028
0.238563
0.241101
0.243642
0.246185
0.248728
0.251272
0.253815
0.256358
0.258899
0.261437
0.263972
0.266504
0.269032
0.271555
0.274072
0.276582
0.279086
0.281582
0.284071
0.28655
0.28902
0.291479
0.293928
0.296366
0.298791
0.20121
0.203639
0.206079
0.208529
0.210991
0.213462
0.215942
0.21843
0.220927
0.22343
0.225941
0.228457
0.230979
0.233505
0.236036
0.23857
0.241107
0.243646
0.246187
0.248729
0.251271
0.253813
0.256354
0.258893
0.26143
0.263964
0.266495
0.269021
0.271543
0.274059
0.27657
0.279073
0.28157
0.284058
0.286538
0.289009
0.291471
0.293921
0.296361
0.29879
0.201212
0.203643
0.206085
0.208538
0.211001
0.213473
0.215954
0.218443
0.220939
0.223443
0.225953
0.228468
0.230989
0.233515
0.236044
0.238577
0.241113
0.24365
0.24619
0.24873
0.25127
0.25381
0.25635
0.258887
0.261423
0.263956
0.266485
0.269011
0.271532
0.274047
0.276557
0.279061
0.281557
0.284046
0.286527
0.288999
0.291462
0.293915
0.296357
0.298788
0.201213
0.203647
0.206092
0.208547
0.211011
0.213484
0.215966
0.218455
0.220952
0.223455
0.225965
0.22848
0.231
0.233524
0.236053
0.238584
0.241118
0.243654
0.246192
0.248731
0.251269
0.253808
0.256346
0.258882
0.261416
0.263947
0.266476
0.269
0.27152
0.274035
0.276545
0.279048
0.281545
0.284034
0.286516
0.288989
0.291453
0.293908
0.296353
0.298787
0.201215
0.203652
0.206099
0.208555
0.211021
0.213495
0.215978
0.218468
0.220965
0.223468
0.225977
0.228491
0.231011
0.233534
0.236061
0.238591
0.241124
0.243658
0.246195
0.248731
0.251269
0.253805
0.256342
0.258876
0.261409
0.263939
0.266466
0.268989
0.271509
0.274023
0.276532
0.279035
0.281532
0.284022
0.286505
0.288979
0.291445
0.293901
0.296348
0.298785
0.201216
0.203656
0.206105
0.208564
0.211031
0.213507
0.21599
0.21848
0.220977
0.22348
0.225989
0.228503
0.231021
0.233544
0.236069
0.238598
0.241129
0.243663
0.246197
0.248732
0.251268
0.253803
0.256337
0.258871
0.261402
0.263931
0.266456
0.268979
0.271497
0.274011
0.27652
0.279023
0.28152
0.28401
0.286493
0.288969
0.291436
0.293895
0.296344
0.298784
0.201218
0.20366
0.206112
0.208572
0.211041
0.213518
0.216002
0.218493
0.22099
0.223493
0.226001
0.228514
0.231032
0.233553
0.236078
0.238605
0.241135
0.243667
0.246199
0.248733
0.251267
0.253801
0.256333
0.258865
0.261395
0.263922
0.266447
0.268968
0.271486
0.273999
0.276507
0.27901
0.281507
0.283998
0.286482
0.288959
0.291428
0.293888
0.29634
0.298782
0.201219
0.203665
0.206119
0.208581
0.211051
0.213529
0.216014
0.218505
0.221003
0.223505
0.226013
0.228526
0.231042
0.233563
0.236086
0.238612
0.241141
0.243671
0.246202
0.248734
0.251266
0.253798
0.256329
0.258859
0.261388
0.263914
0.266437
0.268958
0.271474
0.273987
0.276495
0.278997
0.281495
0.283986
0.286471
0.288949
0.291419
0.293881
0.296335
0.298781
0.201221
0.203669
0.206125
0.20859
0.211062
0.213541
0.216026
0.218518
0.221015
0.223518
0.226025
0.228537
0.231053
0.233572
0.236095
0.238619
0.241146
0.243675
0.246204
0.248735
0.251265
0.253796
0.256325
0.258854
0.261381
0.263905
0.266428
0.268947
0.271463
0.273975
0.276482
0.278985
0.281482
0.283974
0.286459
0.288938
0.29141
0.293875
0.296331
0.298779
0.201222
0.203673
0.206132
0.208598
0.211072
0.213552
0.216038
0.21853
0.221028
0.22353
0.226037
0.228549
0.231064
0.233582
0.236103
0.238626
0.241152
0.243679
0.246207
0.248736
0.251264
0.253793
0.256321
0.258848
0.261374
0.263897
0.266418
0.268936
0.271451
0.273963
0.27647
0.278972
0.28147
0.283962
0.286448
0.288928
0.291402
0.293868
0.296327
0.298778
0.201224
0.203678
0.206139
0.208607
0.211082
0.213563
0.21605
0.218543
0.22104
0.223543
0.22605
0.22856
0.231074
0.233591
0.236111
0.238633
0.241157
0.243683
0.246209
0.248736
0.251264
0.253791
0.256317
0.258843
0.261367
0.263889
0.266409
0.268926
0.27144
0.27395
0.276457
0.27896
0.281457
0.28395
0.286437
0.288918
0.291393
0.293861
0.296322
0.298776
0.201225
0.203682
0.206145
0.208616
0.211092
0.213574
0.216062
0.218555
0.221053
0.223555
0.226062
0.228572
0.231085
0.233601
0.23612
0.238641
0.241163
0.243687
0.246212
0.248737
0.251263
0.253788
0.256313
0.258837
0.261359
0.26388
0.266399
0.268915
0.271428
0.273938
0.276445
0.278947
0.281445
0.283938
0.286426
0.288908
0.291384
0.293855
0.296318
0.298775
0.201227
0.203686
0.206152
0.208624
0.211102
0.213586
0.216074
0.218568
0.221066
0.223568
0.226074
0.228583
0.231096
0.233611
0.236128
0.238648
0.241169
0.243691
0.246214
0.248738
0.251262
0.253786
0.256309
0.258831
0.261352
0.263872
0.266389
0.268904
0.271417
0.273926
0.276432
0.278934
0.281432
0.283926
0.286414
0.288898
0.291376
0.293848
0.296314
0.298773
0.201228
0.203691
0.206159
0.208633
0.211112
0.213597
0.216086
0.21858
0.221078
0.22358
0.226086
0.228595
0.231106
0.23362
0.236137
0.238655
0.241174
0.243695
0.246217
0.248739
0.251261
0.253783
0.256305
0.258826
0.261345
0.263863
0.26638
0.268894
0.271405
0.273914
0.27642
0.278922
0.28142
0.283914
0.286403
0.288888
0.291367
0.293841
0.296309
0.298772
0.20123
0.203695
0.206165
0.208641
0.211122
0.213608
0.216098
0.218593
0.221091
0.223593
0.226098
0.228606
0.231117
0.23363
0.236145
0.238662
0.24118
0.243699
0.246219
0.24874
0.25126
0.253781
0.256301
0.25882
0.261338
0.263855
0.26637
0.268883
0.271394
0.273902
0.276407
0.278909
0.281407
0.283902
0.286392
0.288878
0.291359
0.293835
0.296305
0.29877
0.201232
0.203699
0.206172
0.20865
0.211133
0.213619
0.216111
0.218605
0.221104
0.223605
0.22611
0.228618
0.231127
0.233639
0.236153
0.238669
0.241185
0.243703
0.246222
0.24874
0.25126
0.253778
0.256297
0.258815
0.261331
0.263847
0.266361
0.268873
0.271382
0.27389
0.276395
0.278896
0.281395
0.283889
0.286381
0.288867
0.29135
0.293828
0.296301
0.298768
0.201233
0.203704
0.206179
0.208659
0.211143
0.213631
0.216123
0.218618
0.221116
0.223618
0.226122
0.228629
0.231138
0.233649
0.236162
0.238676
0.241191
0.243707
0.246224
0.248741
0.251259
0.253776
0.256293
0.258809
0.261324
0.263838
0.266351
0.268862
0.271371
0.273878
0.276382
0.278884
0.281382
0.283877
0.286369
0.288857
0.291341
0.293821
0.296296
0.298767
0.201235
0.203708
0.206186
0.208667
0.211153
0.213642
0.216135
0.21863
0.221129
0.223631
0.226134
0.228641
0.231149
0.233659
0.23617
0.238683
0.241197
0.243711
0.246227
0.248742
0.251258
0.253773
0.256289
0.258803
0.261317
0.26383
0.266341
0.268851
0.271359
0.273866
0.276369
0.278871
0.28137
0.283865
0.286358
0.288847
0.291333
0.293814
0.296292
0.298765
0.201236
0.203712
0.206192
0.208676
0.211163
0.213653
0.216147
0.218643
0.221142
0.223643
0.226147
0.228652
0.231159
0.233668
0.236178
0.23869
0.241202
0.243715
0.246229
0.248743
0.251257
0.253771
0.256285
0.258798
0.26131
0.263822
0.266332
0.268841
0.271348
0.273853
0.276357
0.278858
0.281357
0.283853
0.286347
0.288837
0.291324
0.293808
0.296288
0.298764
0.201238
0.203717
0.206199
0.208685
0.211173
0.213665
0.216159
0.218655
0.221154
0.223656
0.226159
0.228663
0.23117
0.233678
0.236187
0.238697
0.241208
0.243719
0.246231
0.248744
0.251256
0.253769
0.256281
0.258792
0.261303
0.263813
0.266322
0.26883
0.271337
0.273841
0.276344
0.278846
0.281345
0.283841
0.286335
0.288827
0.291315
0.293801
0.296283
0.298762
0.201239
0.203721
0.206206
0.208693
0.211183
0.213676
0.216171
0.218668
0.221167
0.223668
0.226171
0.228675
0.231181
0.233687
0.236195
0.238704
0.241213
0.243723
0.246234
0.248745
0.251255
0.253766
0.256277
0.258787
0.261296
0.263805
0.266313
0.268819
0.271325
0.273829
0.276332
0.278833
0.281332
0.283829
0.286324
0.288817
0.291307
0.293794
0.296279
0.298761
0.201241
0.203725
0.206212
0.208702
0.211193
0.213687
0.216183
0.21868
0.22118
0.223681
0.226183
0.228686
0.231191
0.233697
0.236204
0.238711
0.241219
0.243728
0.246236
0.248745
0.251255
0.253764
0.256272
0.258781
0.261289
0.263796
0.266303
0.268809
0.271314
0.273817
0.276319
0.27882
0.28132
0.283817
0.286313
0.288807
0.291298
0.293788
0.296275
0.298759
0.201242
0.20373
0.206219
0.20871
0.211204
0.213698
0.216195
0.218693
0.221192
0.223693
0.226195
0.228698
0.231202
0.233707
0.236212
0.238718
0.241225
0.243732
0.246239
0.248746
0.251254
0.253761
0.256268
0.258775
0.261282
0.263788
0.266293
0.268798
0.271302
0.273805
0.276307
0.278808
0.281307
0.283805
0.286302
0.288796
0.29129
0.293781
0.29627
0.298758
0.201244
0.203734
0.206226
0.208719
0.211214
0.21371
0.216207
0.218706
0.221205
0.223706
0.226207
0.228709
0.231212
0.233716
0.23622
0.238725
0.24123
0.243736
0.246241
0.248747
0.251253
0.253759
0.256264
0.25877
0.261275
0.26378
0.266284
0.268788
0.271291
0.273793
0.276294
0.278795
0.281294
0.283793
0.28629
0.288786
0.291281
0.293774
0.296266
0.298756
0.201245
0.203738
0.206232
0.208728
0.211224
0.213721
0.216219
0.218718
0.221218
0.223718
0.226219
0.228721
0.231223
0.233726
0.236229
0.238732
0.241236
0.24374
0.246244
0.248748
0.251252
0.253756
0.25626
0.258764
0.261268
0.263771
0.266274
0.268777
0.271279
0.273781
0.276282
0.278782
0.281282
0.283781
0.286279
0.288776
0.291272
0.293768
0.296262
0.298755
0.201247
0.203743
0.206239
0.208736
0.211234
0.213732
0.216231
0.218731
0.22123
0.223731
0.226231
0.228732
0.231234
0.233735
0.236237
0.238739
0.241241
0.243744
0.246246
0.248749
0.251251
0.253754
0.256256
0.258759
0.261261
0.263763
0.266265
0.268766
0.271268
0.273769
0.276269
0.27877
0.281269
0.283769
0.286268
0.288766
0.291264
0.293761
0.296257
0.298753
0.201248
0.203747
0.206246
0.208745
0.211244
0.213744
0.216243
0.218743
0.221243
0.223743
0.226243
0.228744
0.231244
0.233745
0.236246
0.238746
0.241247
0.243748
0.246249
0.24875
0.25125
0.253751
0.256252
0.258753
0.261254
0.263754
0.266255
0.268756
0.271256
0.273757
0.276257
0.278757
0.281257
0.283757
0.286256
0.288756
0.291255
0.293754
0.296253
0.298752
0.3025
0.3075
0.3125
0.3175
0.3225
0.3275
0.3325
0.3375
0.3425
0.3475
0.3525
0.3575
0.3625
0.3675
0.3725
0.3775
0.3825
0.3875
0.3925
0.3975
0.4025
0.4075
0.4125
0.4175
0.4225
0.4275
0.4325
0.4375
0.4425
0.4475
0.4525
0.4575
0.4625
0.4675
0.4725
0.4775
0.4825
0.4875
0.4925
0.4975
0.3025
0.3075
0.3125
0.3175
0.3225
0.3275
0.3325
0.3375
0.3425
0.3475
0.3525
0.3575
0.3625
0.3675
0.3725
0.3775
0.3825
0.3875
0.3925
0.3975
0.4025
0.4075
0.4125
0.4175
0.4225
0.4275
0.4325
0.4375
0.4425
0.4475
0.4525
0.4575
0.4625
0.4675
0.4725
0.4775
0.4825
0.4875
0.4925
0.4975
0.3025
0.3075
0.3125
0.3175
0.3225
0.3275
0.3325
0.3375
0.3425
0.3475
0.3525
0.3575
0.3625
0.3675
0.3725
0.3775
0.3825
0.3875
0.3925
0.3975
0.4025
0.4075
0.4125
0.4175
0.4225
0.4275
0.4325
0.4375
0.4425
0.4475
0.4525
0.4575
0.4625
0.4675
0.4725
0.4775
0.4825
0.4875
0.4925
0.4975
0.3025
0.3075
0.3125
0.3175
0.3225
0.3275
0.3325
0.3375
0.3425
0.3475
0.3525
0.3575
0.3625
0.3675
0.3725
0.3775
0.3825
0.3875
0.3925
0.3975
0.4025
0.4075
0.4125
0.4175
0.4225
0.4275
0.4325
0.4375
0.4425
0.4475
0.4525
0.4575
0.4625
0.4675
0.4725
0.4775
0.4825
0.4875
0.4925
0.4975
0.3025
0.3075
0.3125
0.3175
0.3225
0.3275
0.3325
0.3375
0.3425
0.3475
0.3525
0.3575
0.3625
0.3675
0.3725
0.3775
0.3825
0.3875
0.3925
0.3975
0.4025
0.4075
0.4125
0.4175
0.4225
0.4275
0.4325
0.4375
0.4425
0.4475
0.4525
0.4575
0.4625
0.4675
0.4725
0.4775
0.4825
0.4875
0.4925
0.4975
0.3025
0.3075
0.3125
0.3175
0.3225
0.3275
0.3325
0.3375
0.3425
0.3475
0.3525
0.3575
0.3625
0.3675
0.3725
0.3775
0.3825
0.3875
0.3925
0.3975
0.4025
0.4075
0.4125
0.4175
0.4225
0.4275
0.4325
0.4375
0.4425
0.4475
0.4525
0.4575
0.4625
0.4675
0.4725
0.4775
0.4825
0.4875
0.4925
0.4975
0.3025
0.3075
0.3125
0.3175
0.3225
0.3275
0.3325
0.3375
0.3425
0.3475
0.3525
0.3575
0.3625
0.3675
0.3725
0.3775
0.3825
0.3875
0.3925
0.3975
0.4025
0.4075
0.4125
0.4175
0.4225
0.4275
0.4325
0.4375
0.4425
0.4475
0.4525
0.4575
0.4625
0.4675
0.4725
0.4775
0.4825
0.4875
0.4925
0.4975
0.3025
0.3075
0.3125
0.3175
0.3225
0.3275
0.3325
0.3375
0.3425
0.3475
0.3525
0.3575
0.3625
0.3675
0.3725
0.3775
0.3825
0.3875
0.3925
0.3975
0.4025
0.4075
0.4125
0.4175
0.4225
0.4275
0.4325
0.4375
0.4425
0.4475
0.4525
0.4575
0.4625
0.4675
0.4725
0.4775
0.4825
0.4875
0.4925
0.4975
0.3025
0.3075
0.3125
0.3175
0.3225
0.3275
0.3325
0.3375
0.3425
0.3475
0.3525
0.3575
0.3625
0.3675
0.3725
0.3775
0.3825
0.3875
0.3925
0.3975
0.4025
0.4075
0.4125
0.4175
0.4225
0.4275
0.4325
0.4375
0.4425
0.4475
0.4525
0.4575
0.4625
0.4675
0.4725
0.4775
0.4825
0.4875
0.4925
0.4975
0.3025
0.3075
0.3125
0.3175
0.3225
0.3275
0.3325
0.3375
0.3425
0.3475
0.3525
0.3575
0.3625
0.3675
0.3725
0.3775
0.3825
0.3875
0.3925
0.3975
0.4025
0.4075
0.4125
0.4175
0.4225
0.4275
0.4325
0.4375
0.4425
0.4475
0.4525
0.4575
0.4625
0.4675
0.4725
0.4775
0.4825
0.4875
0.4925
0.4975
0.3025
0.3075
0.3125
0.3175
0.3225
0.3275
0.3325
0.3375
0.3425
0.3475
0.3525
0.3575
0.3625
0.3675
0.3725
0.3775
0.3825
0.3875
0.3925
0.3975
0.4025
0.4075
0.4125
0.4175
0.4225
0.4275
0.4325
0.4375
0.4425
0.4475
0.4525
0.4575
0.4625
0.4675
0.4725
0.4775
0.4825
0.4875
0.4925
0.4975
0.3025
0.3075
0.3125
0.3175
0.3225
0.3275
0.3325
0.3375
0.3425
0.3475
0.3525
0.3575
0.3625
0.3675
0.3725
0.3775
0.3825
0.3875
0.3925
0.3975
0.4025
0.4075
0.4125
0.4175
0.4225
0.4275
0.4325
0.4375
0.4425
0.4475
0.4525
0.4575
0.4625
0.4675
0.4725
0.4775
0.4825
0.4875
0.4925
0.4975
0.3025
0.3075
0.3125
0.3175
0.3225
0.3275
0.3325
0.3375
0.3425
0.3475
0.3525
0.3575
0.3625
0.3675
0.3725
0.3775
0.3825
0.3875
0.3925
0.3975
0.4025
0.4075
0.4125
0.4175
0.4225
0.4275
0.4325
0.4375
0.4425
0.4475
0.4525
0.4575
0.4625
0.4675
0.4725
0.4775
0.4825
0.4875
0.4925
0.4975
0.3025
0.3075
0.3125
0.3175
0.3225
0.3275
0.3325
0.3375
0.3425
0.3475
0.3525
0.3575
0.3625
0.3675
0.3725
0.3775
0.3825
0.3875
0.3925
0.3975
0.4025
0.4075
0.4125
0.4175
0.4225
0.4275
0.4325
0.4375
0.4425
0.4475
0.4525
0.4575
0.4625
0.4675
0.4725
0.4775
0.4825
0.4875
0.4925