/*--------------------------------*- C++ -*----------------------------------*\
  =========                 |
  \\      /  F ield         | OpenFOAM: The Open Source CFD Toolbox
   \\    /   O peration     | Website:  https://openfoam.org
    \\  /    A nd           | Version:  11
     \\/     M anipulation  |
\*---------------------------------------------------------------------------*/
FoamFile
{
    format      ascii;
    class       volScalarField;
    location    "0";
    object      Ccy;
}
// * * * * * * * * * * * * * * * * * * * * * * * * * * * * * * * * * * * * * //

dimensions      [0 1 0 0 0 0 0];

internalField   nonuniform List<scalar> 
4800
(
0.0025
0.0025
0.0025
0.0025
0.0025
0.0025
0.0025
0.0025
0.0025
0.0025
0.0025
0.0025
0.0025
0.0025
0.0025
0.0025
0.0025
0.0025
0.0025
0.0025
0.0025
0.0025
0.0025
0.0025
0.0025
0.0025
0.0025
0.0025
0.0025
0.0025
0.0025
0.0025
0.0025
0.0025
0.0025
0.0025
0.0025
0.0025
0.0025
0.0025
0.0075
0.0075
0.0075
0.0075
0.0075
0.0075
0.0075
0.0075
0.0075
0.0075
0.0075
0.0075
0.0075
0.0075
0.0075
0.0075
0.0075
0.0075
0.0075
0.0075
0.0075
0.0075
0.0075
0.0075
0.0075
0.0075
0.0075
0.0075
0.0075
0.0075
0.0075
0.0075
0.0075
0.0075
0.0075
0.0075
0.0075
0.0075
0.0075
0.0075
0.0125
0.0125
0.0125
0.0125
0.0125
0.0125
0.0125
0.0125
0.0125
0.0125
0.0125
0.0125
0.0125
0.0125
0.0125
0.0125
0.0125
0.0125
0.0125
0.0125
0.0125
0.0125
0.0125
0.0125
0.0125
0.0125
0.0125
0.0125
0.0125
0.0125
0.0125
0.0125
0.0125
0.0125
0.0125
0.0125
0.0125
0.0125
0.0125
0.0125
0.0175
0.0175
0.0175
0.0175
0.0175
0.0175
0.0175
0.0175
0.0175
0.0175
0.0175
0.0175
0.0175
0.0175
0.0175
0.0175
0.0175
0.0175
0.0175
0.0175
0.0175
0.0175
0.0175
0.0175
0.0175
0.0175
0.0175
0.0175
0.0175
0.0175
0.0175
0.0175
0.0175
0.0175
0.0175
0.0175
0.0175
0.0175
0.0175
0.0175
0.0225
0.0225
0.0225
0.0225
0.0225
0.0225
0.0225
0.0225
0.0225
0.0225
0.0225
0.0225
0.0225
0.0225
0.0225
0.0225
0.0225
0.0225
0.0225
0.0225
0.0225
0.0225
0.0225
0.0225
0.0225
0.0225
0.0225
0.0225
0.0225
0.0225
0.0225
0.0225
0.0225
0.0225
0.0225
0.0225
0.0225
0.0225
0.0225
0.0225
0.0275
0.0275
0.0275
0.0275
0.0275
0.0275
0.0275
0.0275
0.0275
0.0275
0.0275
0.0275
0.0275
0.0275
0.0275
0.0275
0.0275
0.0275
0.0275
0.0275
0.0275
0.0275
0.0275
0.0275
0.0275
0.0275
0.0275
0.0275
0.0275
0.0275
0.0275
0.0275
0.0275
0.0275
0.0275
0.0275
0.0275
0.0275
0.0275
0.0275
0.0325
0.0325
0.0325
0.0325
0.0325
0.0325
0.0325
0.0325
0.0325
0.0325
0.0325
0.0325
0.0325
0.0325
0.0325
0.0325
0.0325
0.0325
0.0325
0.0325
0.0325
0.0325
0.0325
0.0325
0.0325
0.0325
0.0325
0.0325
0.0325
0.0325
0.0325
0.0325
0.0325
0.0325
0.0325
0.0325
0.0325
0.0325
0.0325
0.0325
0.0375
0.0375
0.0375
0.0375
0.0375
0.0375
0.0375
0.0375
0.0375
0.0375
0.0375
0.0375
0.0375
0.0375
0.0375
0.0375
0.0375
0.0375
0.0375
0.0375
0.0375
0.0375
0.0375
0.0375
0.0375
0.0375
0.0375
0.0375
0.0375
0.0375
0.0375
0.0375
0.0375
0.0375
0.0375
0.0375
0.0375
0.0375
0.0375
0.0375
0.0425
0.0425
0.0425
0.0425
0.0425
0.0425
0.0425
0.0425
0.0425
0.0425
0.0425
0.0425
0.0425
0.0425
0.0425
0.0425
0.0425
0.0425
0.0425
0.0425
0.0425
0.0425
0.0425
0.0425
0.0425
0.0425
0.0425
0.0425
0.0425
0.0425
0.0425
0.0425
0.0425
0.0425
0.0425
0.0425
0.0425
0.0425
0.0425
0.0425
0.0475
0.0475
0.0475
0.0475
0.0475
0.0475
0.0475
0.0475
0.0475
0.0475
0.0475
0.0475
0.0475
0.0475
0.0475
0.0475
0.0475
0.0475
0.0475
0.0475
0.0475
0.0475
0.0475
0.0475
0.0475
0.0475
0.0475
0.0475
0.0475
0.0475
0.0475
0.0475
0.0475
0.0475
0.0475
0.0475
0.0475
0.0475
0.0475
0.0475
0.0525
0.0525
0.0525
0.0525
0.0525
0.0525
0.0525
0.0525
0.0525
0.0525
0.0525
0.0525
0.0525
0.0525
0.0525
0.0525
0.0525
0.0525
0.0525
0.0525
0.0525
0.0525
0.0525
0.0525
0.0525
0.0525
0.0525
0.0525
0.0525
0.0525
0.0525
0.0525
0.0525
0.0525
0.0525
0.0525
0.0525
0.0525
0.0525
0.0525
0.0575
0.0575
0.0575
0.0575
0.0575
0.0575
0.0575
0.0575
0.0575
0.0575
0.0575
0.0575
0.0575
0.0575
0.0575
0.0575
0.0575
0.0575
0.0575
0.0575
0.0575
0.0575
0.0575
0.0575
0.0575
0.0575
0.0575
0.0575
0.0575
0.0575
0.0575
0.0575
0.0575
0.0575
0.0575
0.0575
0.0575
0.0575
0.0575
0.0575
0.0625
0.0625
0.0625
0.0625
0.0625
0.0625
0.0625
0.0625
0.0625
0.0625
0.0625
0.0625
0.0625
0.0625
0.0625
0.0625
0.0625
0.0625
0.0625
0.0625
0.0625
0.0625
0.0625
0.0625
0.0625
0.0625
0.0625
0.0625
0.0625
0.0625
0.0625
0.0625
0.0625
0.0625
0.0625
0.0625
0.0625
0.0625
0.0625
0.0625
0.0675
0.0675
0.0675
0.0675
0.0675
0.0675
0.0675
0.0675
0.0675
0.0675
0.0675
0.0675
0.0675
0.0675
0.0675
0.0675
0.0675
0.0675
0.0675
0.0675
0.0675
0.0675
0.0675
0.0675
0.0675
0.0675
0.0675
0.0675
0.0675
0.0675
0.0675
0.0675
0.0675
0.0675
0.0675
0.0675
0.0675
0.0675
0.0675
0.0675
0.0725
0.0725
0.0725
0.0725
0.0725
0.0725
0.0725
0.0725
0.0725
0.0725
0.0725
0.0725
0.0725
0.0725
0.0725
0.0725
0.0725
0.0725
0.0725
0.0725
0.0725
0.0725
0.0725
0.0725
0.0725
0.0725
0.0725
0.0725
0.0725
0.0725
0.0725
0.0725
0.0725
0.0725
0.0725
0.0725
0.0725
0.0725
0.0725
0.0725
0.0775
0.0775
0.0775
0.0775
0.0775
0.0775
0.0775
0.0775
0.0775
0.0775
0.0775
0.0775
0.0775
0.0775
0.0775
0.0775
0.0775
0.0775
0.0775
0.0775
0.0775
0.0775
0.0775
0.0775
0.0775
0.0775
0.0775
0.0775
0.0775
0.0775
0.0775
0.0775
0.0775
0.0775
0.0775
0.0775
0.0775
0.0775
0.0775
0.0775
0.0825
0.0825
0.0825
0.0825
0.0825
0.0825
0.0825
0.0825
0.0825
0.0825
0.0825
0.0825
0.0825
0.0825
0.0825
0.0825
0.0825
0.0825
0.0825
0.0825
0.0825
0.0825
0.0825
0.0825
0.0825
0.0825
0.0825
0.0825
0.0825
0.0825
0.0825
0.0825
0.0825
0.0825
0.0825
0.0825
0.0825
0.0825
0.0825
0.0825
0.0875
0.0875
0.0875
0.0875
0.0875
0.0875
0.0875
0.0875
0.0875
0.0875
0.0875
0.0875
0.0875
0.0875
0.0875
0.0875
0.0875
0.0875
0.0875
0.0875
0.0875
0.0875
0.0875
0.0875
0.0875
0.0875
0.0875
0.0875
0.0875
0.0875
0.0875
0.0875
0.0875
0.0875
0.0875
0.0875
0.0875
0.0875
0.0875
0.0875
0.0925
0.0925
0.0925
0.0925
0.0925
0.0925
0.0925
0.0925
0.0925
0.0925
0.0925
0.0925
0.0925
0.0925
0.0925
0.0925
0.0925
0.0925
0.0925
0.0925
0.0925
0.0925
0.0925
0.0925
0.0925
0.0925
0.0925
0.0925
0.0925
0.0925
0.0925
0.0925
0.0925
0.0925
0.0925
0.0925
0.0925
0.0925
0.0925
0.0925
0.0975
0.0975
0.0975
0.0975
0.0975
0.0975
0.0975
0.0975
0.0975
0.0975
0.0975
0.0975
0.0975
0.0975
0.0975
0.0975
0.0975
0.0975
0.0975
0.0975
0.0975
0.0975
0.0975
0.0975
0.0975
0.0975
0.0975
0.0975
0.0975
0.0975
0.0975
0.0975
0.0975
0.0975
0.0975
0.0975
0.0975
0.0975
0.0975
0.0975
0.1025
0.1025
0.1025
0.1025
0.1025
0.1025
0.1025
0.1025
0.1025
0.1025
0.1025
0.1025
0.1025
0.1025
0.1025
0.1025
0.1025
0.1025
0.1025
0.1025
0.1025
0.1025
0.1025
0.1025
0.1025
0.1025
0.1025
0.1025
0.1025
0.1025
0.1025
0.1025
0.1025
0.1025
0.1025
0.1025
0.1025
0.1025
0.1025
0.1025
0.1075
0.1075
0.1075
0.1075
0.1075
0.1075
0.1075
0.1075
0.1075
0.1075
0.1075
0.1075
0.1075
0.1075
0.1075
0.1075
0.1075
0.1075
0.1075
0.1075
0.1075
0.1075
0.1075
0.1075
0.1075
0.1075
0.1075
0.1075
0.1075
0.1075
0.1075
0.1075
0.1075
0.1075
0.1075
0.1075
0.1075
0.1075
0.1075
0.1075
0.1125
0.1125
0.1125
0.1125
0.1125
0.1125
0.1125
0.1125
0.1125
0.1125
0.1125
0.1125
0.1125
0.1125
0.1125
0.1125
0.1125
0.1125
0.1125
0.1125
0.1125
0.1125
0.1125
0.1125
0.1125
0.1125
0.1125
0.1125
0.1125
0.1125
0.1125
0.1125
0.1125
0.1125
0.1125
0.1125
0.1125
0.1125
0.1125
0.1125
0.1175
0.1175
0.1175
0.1175
0.1175
0.1175
0.1175
0.1175
0.1175
0.1175
0.1175
0.1175
0.1175
0.1175
0.1175
0.1175
0.1175
0.1175
0.1175
0.1175
0.1175
0.1175
0.1175
0.1175
0.1175
0.1175
0.1175
0.1175
0.1175
0.1175
0.1175
0.1175
0.1175
0.1175
0.1175
0.1175
0.1175
0.1175
0.1175
0.1175
0.1225
0.1225
0.1225
0.1225
0.1225
0.1225
0.1225
0.1225
0.1225
0.1225
0.1225
0.1225
0.1225
0.1225
0.1225
0.1225
0.1225
0.1225
0.1225
0.1225
0.1225
0.1225
0.1225
0.1225
0.1225
0.1225
0.1225
0.1225
0.1225
0.1225
0.1225
0.1225
0.1225
0.1225
0.1225
0.1225
0.1225
0.1225
0.1225
0.1225
0.1275
0.1275
0.1275
0.1275
0.1275
0.1275
0.1275
0.1275
0.1275
0.1275
0.1275
0.1275
0.1275
0.1275
0.1275
0.1275
0.1275
0.1275
0.1275
0.1275
0.1275
0.1275
0.1275
0.1275
0.1275
0.1275
0.1275
0.1275
0.1275
0.1275
0.1275
0.1275
0.1275
0.1275
0.1275
0.1275
0.1275
0.1275
0.1275
0.1275
0.1325
0.1325
0.1325
0.1325
0.1325
0.1325
0.1325
0.1325
0.1325
0.1325
0.1325
0.1325
0.1325
0.1325
0.1325
0.1325
0.1325
0.1325
0.1325
0.1325
0.1325
0.1325
0.1325
0.1325
0.1325
0.1325
0.1325
0.1325
0.1325
0.1325
0.1325
0.1325
0.1325
0.1325
0.1325
0.1325
0.1325
0.1325
0.1325
0.1325
0.1375
0.1375
0.1375
0.1375
0.1375
0.1375
0.1375
0.1375
0.1375
0.1375
0.1375
0.1375
0.1375
0.1375
0.1375
0.1375
0.1375
0.1375
0.1375
0.1375
0.1375
0.1375
0.1375
0.1375
0.1375
0.1375
0.1375
0.1375
0.1375
0.1375
0.1375
0.1375
0.1375
0.1375
0.1375
0.1375
0.1375
0.1375
0.1375
0.1375
0.1425
0.1425
0.1425
0.1425
0.1425
0.1425
0.1425
0.1425
0.1425
0.1425
0.1425
0.1425
0.1425
0.1425
0.1425
0.1425
0.1425
0.1425
0.1425
0.1425
0.1425
0.1425
0.1425
0.1425
0.1425
0.1425
0.1425
0.1425
0.1425
0.1425
0.1425
0.1425
0.1425
0.1425
0.1425
0.1425
0.1425
0.1425
0.1425
0.1425
0.1475
0.1475
0.1475
0.1475
0.1475
0.1475
0.1475
0.1475
0.1475
0.1475
0.1475
0.1475
0.1475
0.1475
0.1475
0.1475
0.1475
0.1475
0.1475
0.1475
0.1475
0.1475
0.1475
0.1475
0.1475
0.1475
0.1475
0.1475
0.1475
0.1475
0.1475
0.1475
0.1475
0.1475
0.1475
0.1475
0.1475
0.1475
0.1475
0.1475
0.1525
0.1525
0.1525
0.1525
0.1525
0.1525
0.1525
0.1525
0.1525
0.1525
0.1525
0.1525
0.1525
0.1525
0.1525
0.1525
0.1525
0.1525
0.1525
0.1525
0.1525
0.1525
0.1525
0.1525
0.1525
0.1525
0.1525
0.1525
0.1525
0.1525
0.1525
0.1525
0.1525
0.1525
0.1525
0.1525
0.1525
0.1525
0.1525
0.1525
0.1575
0.1575
0.1575
0.1575
0.1575
0.1575
0.1575
0.1575
0.1575
0.1575
0.1575
0.1575
0.1575
0.1575
0.1575
0.1575
0.1575
0.1575
0.1575
0.1575
0.1575
0.1575
0.1575
0.1575
0.1575
0.1575
0.1575
0.1575
0.1575
0.1575
0.1575
0.1575
0.1575
0.1575
0.1575
0.1575
0.1575
0.1575
0.1575
0.1575
0.1625
0.1625
0.1625
0.1625
0.1625
0.1625
0.1625
0.1625
0.1625
0.1625
0.1625
0.1625
0.1625
0.1625
0.1625
0.1625
0.1625
0.1625
0.1625
0.1625
0.1625
0.1625
0.1625
0.1625
0.1625
0.1625
0.1625
0.1625
0.1625
0.1625
0.1625
0.1625
0.1625
0.1625
0.1625
0.1625
0.1625
0.1625
0.1625
0.1625
0.1675
0.1675
0.1675
0.1675
0.1675
0.1675
0.1675
0.1675
0.1675
0.1675
0.1675
0.1675
0.1675
0.1675
0.1675
0.1675
0.1675
0.1675
0.1675
0.1675
0.1675
0.1675
0.1675
0.1675
0.1675
0.1675
0.1675
0.1675
0.1675
0.1675
0.1675
0.1675
0.1675
0.1675
0.1675
0.1675
0.1675
0.1675
0.1675
0.1675
0.1725
0.1725
0.1725
0.1725
0.1725
0.1725
0.1725
0.1725
0.1725
0.1725
0.1725
0.1725
0.1725
0.1725
0.1725
0.1725
0.1725
0.1725
0.1725
0.1725
0.1725
0.1725
0.1725
0.1725
0.1725
0.1725
0.1725
0.1725
0.1725
0.1725
0.1725
0.1725
0.1725
0.1725
0.1725
0.1725
0.1725
0.1725
0.1725
0.1725
0.1775
0.1775
0.1775
0.1775
0.1775
0.1775
0.1775
0.1775
0.1775
0.1775
0.1775
0.1775
0.1775
0.1775
0.1775
0.1775
0.1775
0.1775
0.1775
0.1775
0.1775
0.1775
0.1775
0.1775
0.1775
0.1775
0.1775
0.1775
0.1775
0.1775
0.1775
0.1775
0.1775
0.1775
0.1775
0.1775
0.1775
0.1775
0.1775
0.1775
0.1825
0.1825
0.1825
0.1825
0.1825
0.1825
0.1825
0.1825
0.1825
0.1825
0.1825
0.1825
0.1825
0.1825
0.1825
0.1825
0.1825
0.1825
0.1825
0.1825
0.1825
0.1825
0.1825
0.1825
0.1825
0.1825
0.1825
0.1825
0.1825
0.1825
0.1825
0.1825
0.1825
0.1825
0.1825
0.1825
0.1825
0.1825
0.1825
0.1825
0.1875
0.1875
0.1875
0.1875
0.1875
0.1875
0.1875
0.1875
0.1875
0.1875
0.1875
0.1875
0.1875
0.1875
0.1875
0.1875
0.1875
0.1875
0.1875
0.1875
0.1875
0.1875
0.1875
0.1875
0.1875
0.1875
0.1875
0.1875
0.1875
0.1875
0.1875
0.1875
0.1875
0.1875
0.1875
0.1875
0.1875
0.1875
0.1875
0.1875
0.1925
0.1925
0.1925
0.1925
0.1925
0.1925
0.1925
0.1925
0.1925
0.1925
0.1925
0.1925
0.1925
0.1925
0.1925
0.1925
0.1925
0.1925
0.1925
0.1925
0.1925
0.1925
0.1925
0.1925
0.1925
0.1925
0.1925
0.1925
0.1925
0.1925
0.1925
0.1925
0.1925
0.1925
0.1925
0.1925
0.1925
0.1925
0.1925
0.1925
0.1975
0.1975
0.1975
0.1975
0.1975
0.1975
0.1975
0.1975
0.1975
0.1975
0.1975
0.1975
0.1975
0.1975
0.1975
0.1975
0.1975
0.1975
0.1975
0.1975
0.1975
0.1975
0.1975
0.1975
0.1975
0.1975
0.1975
0.1975
0.1975
0.1975
0.1975
0.1975
0.1975
0.1975
0.1975
0.1975
0.1975
0.1975
0.1975
0.1975
0.00297588
0.00390405
0.00478551
0.00561991
0.00640693
0.00714625
0.0078376
0.00848069
0.00907529
0.00962115
0.0101181
0.0105659
0.0109643
0.0113133
0.0116127
0.0118624
0.0120623
0.0122122
0.0123122
0.0123622
0.0123622
0.0123122
0.0122122
0.0120623
0.0118624
0.0116127
0.0113133
0.0109643
0.0105659
0.0101181
0.00962115
0.00907529
0.00848069
0.0078376
0.00714625
0.00640693
0.00561991
0.00478551
0.00390405
0.00297588
0.00796384
0.00886852
0.00972766
0.0105409
0.011308
0.0120286
0.0127025
0.0133293
0.0139088
0.0144409
0.0149252
0.0153617
0.01575
0.0160902
0.016382
0.0166254
0.0168202
0.0169663
0.0170638
0.0171126
0.0171126
0.0170638
0.0169663
0.0168202
0.0166254
0.016382
0.0160902
0.01575
0.0153617
0.0149252
0.0144409
0.0139088
0.0133293
0.0127025
0.0120286
0.011308
0.0105409
0.00972766
0.00886852
0.00796384
0.0129518
0.013833
0.0146698
0.015462
0.0162091
0.016911
0.0175673
0.0181779
0.0187424
0.0192606
0.0197323
0.0201575
0.0205357
0.0208671
0.0211513
0.0213883
0.0215781
0.0217204
0.0218154
0.0218629
0.0218629
0.0218154
0.0217204
0.0215781
0.0213883
0.0211513
0.0208671
0.0205357
0.0201575
0.0197323
0.0192606
0.0187424
0.0181779
0.0175673
0.016911
0.0162091
0.015462
0.0146698
0.013833
0.0129518
0.0179398
0.0187974
0.019612
0.020383
0.0211102
0.0217934
0.0224322
0.0230265
0.0235759
0.0240803
0.0245395
0.0249533
0.0253215
0.0256439
0.0259206
0.0261513
0.026336
0.0264746
0.026567
0.0266132
0.0266132
0.026567
0.0264746
0.026336
0.0261513
0.0259206
0.0256439
0.0253215
0.0249533
0.0245395
0.0240803
0.0235759
0.0230265
0.0224322
0.0217934
0.0211102
0.020383
0.019612
0.0187974
0.0179398
0.0229277
0.0237619
0.0245541
0.025304
0.0260113
0.0266758
0.0272971
0.0278751
0.0284094
0.0289
0.0293466
0.029749
0.0301072
0.0304208
0.0306899
0.0309143
0.0310939
0.0312287
0.0313186
0.0313635
0.0313635
0.0313186
0.0312287
0.0310939
0.0309143
0.0306899
0.0304208
0.0301072
0.029749
0.0293466
0.0289
0.0284094
0.0278751
0.0272971
0.0266758
0.0260113
0.025304
0.0245541
0.0237619
0.0229277
0.0279157
0.0287264
0.0294963
0.030225
0.0309124
0.0315581
0.032162
0.0327237
0.033243
0.0337197
0.0341538
0.0345448
0.0348929
0.0351977
0.0354592
0.0356773
0.0358518
0.0359828
0.0360701
0.0361138
0.0361138
0.0360701
0.0359828
0.0358518
0.0356773
0.0354592
0.0351977
0.0348929
0.0345448
0.0341538
0.0337197
0.033243
0.0327237
0.032162
0.0315581
0.0309124
0.030225
0.0294963
0.0287264
0.0279157
0.0329037
0.0336908
0.0344384
0.035146
0.0358135
0.0364405
0.0370268
0.0375722
0.0380765
0.0385395
0.0389609
0.0393406
0.0396786
0.0399746
0.0402285
0.0404402
0.0406097
0.0407369
0.0408217
0.0408641
0.0408641
0.0408217
0.0407369
0.0406097
0.0404402
0.0402285
0.0399746
0.0396786
0.0393406
0.0389609
0.0385395
0.0380765
0.0375722
0.0370268
0.0364405
0.0358135
0.035146
0.0344384
0.0336908
0.0329037
0.0378916
0.0386553
0.0393805
0.0400671
0.0407146
0.0413229
0.0418917
0.0424208
0.04291
0.0433592
0.043768
0.0441364
0.0444643
0.0447514
0.0449978
0.0452032
0.0453676
0.045491
0.0455733
0.0456145
0.0456145
0.0455733
0.045491
0.0453676
0.0452032
0.0449978
0.0447514
0.0444643
0.0441364
0.043768
0.0433592
0.04291
0.0424208
0.0418917
0.0413229
0.0407146
0.0400671
0.0393805
0.0386553
0.0378916
0.0428796
0.0436198
0.0443227
0.0449881
0.0456157
0.0462053
0.0467566
0.0472694
0.0477436
0.0481789
0.0485752
0.0489322
0.04925
0.0495283
0.0497671
0.0499662
0.0501256
0.0502451
0.0503249
0.0503648
0.0503648
0.0503249
0.0502451
0.0501256
0.0499662
0.0497671
0.0495283
0.04925
0.0489322
0.0485752
0.0481789
0.0477436
0.0472694
0.0467566
0.0462053
0.0456157
0.0449881
0.0443227
0.0436198
0.0428796
0.0478676
0.0485842
0.0492648
0.0499091
0.0505168
0.0510876
0.0516215
0.052118
0.0525771
0.0529986
0.0533823
0.053728
0.0540357
0.0543052
0.0545364
0.0547291
0.0548835
0.0549993
0.0550765
0.0551151
0.0551151
0.0550765
0.0549993
0.0548835
0.0547291
0.0545364
0.0543052
0.0540357
0.053728
0.0533823
0.0529986
0.0525771
0.052118
0.0516215
0.0510876
0.0505168
0.0499091
0.0492648
0.0485842
0.0478676
0.0528555
0.0535487
0.054207
0.0548301
0.0554179
0.05597
0.0564863
0.0569666
0.0574107
0.0578183
0.0581894
0.0585238
0.0588214
0.0590821
0.0593057
0.0594921
0.0596414
0.0597534
0.0598281
0.0598654
0.0598654
0.0598281
0.0597534
0.0596414
0.0594921
0.0593057
0.0590821
0.0588214
0.0585238
0.0581894
0.0578183
0.0574107
0.0569666
0.0564863
0.05597
0.0554179
0.0548301
0.054207
0.0535487
0.0528555
0.0578435
0.0585132
0.0591491
0.0597512
0.060319
0.0608524
0.0613512
0.0618152
0.0622442
0.062638
0.0629966
0.0633196
0.0636071
0.0638589
0.0640749
0.0642551
0.0643993
0.0645075
0.0645796
0.0646157
0.0646157
0.0645796
0.0645075
0.0643993
0.0642551
0.0640749
0.0638589
0.0636071
0.0633196
0.0629966
0.062638
0.0622442
0.0618152
0.0613512
0.0608524
0.060319
0.0597512
0.0591491
0.0585132
0.0578435
0.0628315
0.0634776
0.0640913
0.0646722
0.0652201
0.0657348
0.0662161
0.0666638
0.0670777
0.0674578
0.0678037
0.0681154
0.0683928
0.0686358
0.0688442
0.0690181
0.0691572
0.0692616
0.0693312
0.069366
0.069366
0.0693312
0.0692616
0.0691572
0.0690181
0.0688442
0.0686358
0.0683928
0.0681154
0.0678037
0.0674578
0.0670777
0.0666638
0.0662161
0.0657348
0.0652201
0.0646722
0.0640913
0.0634776
0.0628315
0.0678194
0.0684421
0.0690334
0.0695932
0.0701212
0.0706172
0.071081
0.0715124
0.0719113
0.0722775
0.0726108
0.0729112
0.0731785
0.0734127
0.0736135
0.073781
0.0739151
0.0740157
0.0740828
0.0741164
0.0741164
0.0740828
0.0740157
0.0739151
0.073781
0.0736135
0.0734127
0.0731785
0.0729112
0.0726108
0.0722775
0.0719113
0.0715124
0.071081
0.0706172
0.0701212
0.0695932
0.0690334
0.0684421
0.0678194
0.0728074
0.0734066
0.0739756
0.0745142
0.0750223
0.0754995
0.0759458
0.076361
0.0767448
0.0770972
0.077418
0.077707
0.0779643
0.0781896
0.0783828
0.078544
0.078673
0.0787698
0.0788344
0.0788667
0.0788667
0.0788344
0.0787698
0.078673
0.078544
0.0783828
0.0781896
0.0779643
0.077707
0.077418
0.0770972
0.0767448
0.076361
0.0759458
0.0754995
0.0750223
0.0745142
0.0739756
0.0734066
0.0728074
0.0777954
0.078371
0.0789177
0.0794352
0.0799234
0.0803819
0.0808107
0.0812096
0.0815783
0.0819169
0.0822251
0.0825028
0.08275
0.0829664
0.0831521
0.083307
0.0834309
0.0835239
0.083586
0.083617
0.083617
0.083586
0.0835239
0.0834309
0.083307
0.0831521
0.0829664
0.08275
0.0825028
0.0822251
0.0819169
0.0815783
0.0812096
0.0808107
0.0803819
0.0799234
0.0794352
0.0789177
0.078371
0.0777954
0.0827833
0.0833355
0.0838599
0.0843563
0.0848245
0.0852643
0.0856756
0.0860582
0.0864119
0.0867366
0.0870322
0.0872986
0.0875357
0.0877433
0.0879214
0.0880699
0.0881888
0.0882781
0.0883375
0.0883673
0.0883673
0.0883375
0.0882781
0.0881888
0.0880699
0.0879214
0.0877433
0.0875357
0.0872986
0.0870322
0.0867366
0.0864119
0.0860582
0.0856756
0.0852643
0.0848245
0.0843563
0.0838599
0.0833355
0.0827833
0.0877713
0.0883
0.088802
0.0892773
0.0897256
0.0901467
0.0905404
0.0909067
0.0912454
0.0915563
0.0918394
0.0920944
0.0923214
0.0925202
0.0926907
0.0928329
0.0929468
0.0930322
0.0930891
0.0931176
0.0931176
0.0930891
0.0930322
0.0929468
0.0928329
0.0926907
0.0925202
0.0923214
0.0920944
0.0918394
0.0915563
0.0912454
0.0909067
0.0905404
0.0901467
0.0897256
0.0892773
0.088802
0.0883
0.0877713
0.0927593
0.0932644
0.0937442
0.0941983
0.0946267
0.095029
0.0954053
0.0957553
0.096079
0.0963761
0.0966465
0.0968902
0.0971071
0.097297
0.09746
0.0975959
0.0977047
0.0977863
0.0978407
0.0978679
0.0978679
0.0978407
0.0977863
0.0977047
0.0975959
0.09746
0.097297
0.0971071
0.0968902
0.0966465
0.0963761
0.096079
0.0957553
0.0954053
0.095029
0.0946267
0.0941983
0.0937442
0.0932644
0.0927593
0.0977472
0.0982289
0.0986863
0.0991193
0.0995278
0.0999114
0.10027
0.100604
0.100912
0.101196
0.101454
0.101686
0.101893
0.102074
0.102229
0.102359
0.102463
0.10254
0.102592
0.102618
0.102618
0.102592
0.10254
0.102463
0.102359
0.102229
0.102074
0.101893
0.101686
0.101454
0.101196
0.100912
0.100604
0.10027
0.0999114
0.0995278
0.0991193
0.0986863
0.0982289
0.0977472
0.102735
0.103193
0.103628
0.10404
0.104429
0.104794
0.105135
0.105453
0.105746
0.106015
0.106261
0.106482
0.106679
0.106851
0.106999
0.107122
0.10722
0.107295
0.107344
0.107369
0.107369
0.107344
0.107295
0.10722
0.107122
0.106999
0.106851
0.106679
0.106482
0.106261
0.106015
0.105746
0.105453
0.105135
0.104794
0.104429
0.10404
0.103628
0.103193
0.102735
0.107723
0.108158
0.108571
0.108961
0.10933
0.109676
0.11
0.110301
0.11058
0.110835
0.111068
0.111278
0.111464
0.111628
0.111768
0.111885
0.111978
0.112049
0.112095
0.112119
0.112119
0.112095
0.112049
0.111978
0.111885
0.111768
0.111628
0.111464
0.111278
0.111068
0.110835
0.11058
0.110301
0.11
0.109676
0.10933
0.108961
0.108571
0.108158
0.107723
0.112711
0.113122
0.113513
0.113882
0.114231
0.114559
0.114865
0.11515
0.115413
0.115655
0.115875
0.116073
0.11625
0.116405
0.116537
0.116648
0.116736
0.116803
0.116847
0.116869
0.116869
0.116847
0.116803
0.116736
0.116648
0.116537
0.116405
0.11625
0.116073
0.115875
0.115655
0.115413
0.11515
0.114865
0.114559
0.114231
0.113882
0.113513
0.113122
0.112711
0.117699
0.118087
0.118455
0.118803
0.119132
0.119441
0.11973
0.119998
0.120247
0.120475
0.120682
0.120869
0.121036
0.121181
0.121306
0.121411
0.121494
0.121557
0.121599
0.12162
0.12162
0.121599
0.121557
0.121494
0.121411
0.121306
0.121181
0.121036
0.120869
0.120682
0.120475
0.120247
0.119998
0.11973
0.119441
0.119132
0.118803
0.118455
0.118087
0.117699
0.122687
0.123051
0.123397
0.123724
0.124033
0.124323
0.124595
0.124847
0.12508
0.125294
0.125489
0.125665
0.125821
0.125958
0.126076
0.126174
0.126252
0.126311
0.12635
0.12637
0.12637
0.12635
0.126311
0.126252
0.126174
0.126076
0.125958
0.125821
0.125665
0.125489
0.125294
0.12508
0.124847
0.124595
0.124323
0.124033
0.123724
0.123397
0.123051
0.122687
0.127675
0.128016
0.128339
0.128645
0.128934
0.129206
0.129459
0.129695
0.129914
0.130114
0.130296
0.130461
0.130607
0.130735
0.130845
0.130937
0.13101
0.131065
0.131102
0.13112
0.13112
0.131102
0.131065
0.13101
0.130937
0.130845
0.130735
0.130607
0.130461
0.130296
0.130114
0.129914
0.129695
0.129459
0.129206
0.128934
0.128645
0.128339
0.128016
0.127675
0.132663
0.13298
0.133281
0.133566
0.133835
0.134088
0.134324
0.134544
0.134747
0.134934
0.135104
0.135257
0.135393
0.135512
0.135614
0.1357
0.135768
0.135819
0.135853
0.13587
0.13587
0.135853
0.135819
0.135768
0.1357
0.135614
0.135512
0.135393
0.135257
0.135104
0.134934
0.134747
0.134544
0.134324
0.134088
0.133835
0.133566
0.133281
0.13298
0.132663
0.137651
0.137945
0.138224
0.138488
0.138737
0.13897
0.139189
0.139393
0.139581
0.139754
0.139911
0.140052
0.140178
0.140289
0.140384
0.140463
0.140526
0.140573
0.140605
0.140621
0.140621
0.140605
0.140573
0.140526
0.140463
0.140384
0.140289
0.140178
0.140052
0.139911
0.139754
0.139581
0.139393
0.139189
0.13897
0.138737
0.138488
0.138224
0.137945
0.137651
0.142639
0.142909
0.143166
0.143409
0.143638
0.143853
0.144054
0.144241
0.144414
0.144573
0.144718
0.144848
0.144964
0.145066
0.145153
0.145226
0.145284
0.145327
0.145357
0.145371
0.145371
0.145357
0.145327
0.145284
0.145226
0.145153
0.145066
0.144964
0.144848
0.144718
0.144573
0.144414
0.144241
0.144054
0.143853
0.143638
0.143409
0.143166
0.142909
0.142639
0.147627
0.147874
0.148108
0.14833
0.148539
0.148735
0.148919
0.14909
0.149248
0.149393
0.149525
0.149644
0.14975
0.149843
0.149922
0.149989
0.150042
0.150082
0.150108
0.150121
0.150121
0.150108
0.150082
0.150042
0.149989
0.149922
0.149843
0.14975
0.149644
0.149525
0.149393
0.149248
0.14909
0.148919
0.148735
0.148539
0.14833
0.148108
0.147874
0.147627
0.152615
0.152838
0.15305
0.153251
0.15344
0.153618
0.153784
0.153938
0.154081
0.154213
0.154332
0.15444
0.154536
0.15462
0.154692
0.154752
0.1548
0.154836
0.15486
0.154872
0.154872
0.15486
0.154836
0.1548
0.154752
0.154692
0.15462
0.154536
0.15444
0.154332
0.154213
0.154081
0.153938
0.153784
0.153618
0.15344
0.153251
0.15305
0.152838
0.152615
0.157603
0.157802
0.157992
0.158172
0.158341
0.1585
0.158649
0.158787
0.158915
0.159032
0.159139
0.159236
0.159321
0.159396
0.159461
0.159515
0.159558
0.15959
0.159611
0.159622
0.159622
0.159611
0.15959
0.159558
0.159515
0.159461
0.159396
0.159321
0.159236
0.159139
0.159032
0.158915
0.158787
0.158649
0.1585
0.158341
0.158172
0.157992
0.157802
0.157603
0.162591
0.162767
0.162934
0.163093
0.163242
0.163382
0.163514
0.163636
0.163748
0.163852
0.163946
0.164031
0.164107
0.164173
0.16423
0.164277
0.164315
0.164344
0.164363
0.164372
0.164372
0.164363
0.164344
0.164315
0.164277
0.16423
0.164173
0.164107
0.164031
0.163946
0.163852
0.163748
0.163636
0.163514
0.163382
0.163242
0.163093
0.162934
0.162767
0.162591
0.167579
0.167731
0.167876
0.168014
0.168143
0.168265
0.168378
0.168484
0.168582
0.168672
0.168754
0.168827
0.168893
0.16895
0.168999
0.16904
0.169073
0.169098
0.169114
0.169123
0.169123
0.169114
0.169098
0.169073
0.16904
0.168999
0.16895
0.168893
0.168827
0.168754
0.168672
0.168582
0.168484
0.168378
0.168265
0.168143
0.168014
0.167876
0.167731
0.167579
0.172567
0.172696
0.172819
0.172935
0.173044
0.173147
0.173243
0.173333
0.173416
0.173492
0.173561
0.173623
0.173678
0.173727
0.173769
0.173803
0.173831
0.173852
0.173866
0.173873
0.173873
0.173866
0.173852
0.173831
0.173803
0.173769
0.173727
0.173678
0.173623
0.173561
0.173492
0.173416
0.173333
0.173243
0.173147
0.173044
0.172935
0.172819
0.172696
0.172567
0.177555
0.17766
0.177761
0.177856
0.177945
0.178029
0.178108
0.178181
0.178249
0.178311
0.178368
0.178419
0.178464
0.178504
0.178538
0.178566
0.178589
0.178606
0.178618
0.178623
0.178623
0.178618
0.178606
0.178589
0.178566
0.178538
0.178504
0.178464
0.178419
0.178368
0.178311
0.178249
0.178181
0.178108
0.178029
0.177945
0.177856
0.177761
0.17766
0.177555
0.182543
0.182625
0.182703
0.182777
0.182846
0.182912
0.182973
0.18303
0.183083
0.183131
0.183175
0.183215
0.18325
0.183281
0.183307
0.183329
0.183347
0.18336
0.183369
0.183374
0.183374
0.183369
0.18336
0.183347
0.183329
0.183307
0.183281
0.18325
0.183215
0.183175
0.183131
0.183083
0.18303
0.182973
0.182912
0.182846
0.182777
0.182703
0.182625
0.182543
0.187531
0.187589
0.187645
0.187698
0.187747
0.187794
0.187838
0.187879
0.187916
0.187951
0.187982
0.18801
0.188036
0.188058
0.188077
0.188092
0.188105
0.188114
0.188121
0.188124
0.188124
0.188121
0.188114
0.188105
0.188092
0.188077
0.188058
0.188036
0.18801
0.187982
0.187951
0.187916
0.187879
0.187838
0.187794
0.187747
0.187698
0.187645
0.187589
0.187531
0.192519
0.192554
0.192587
0.192619
0.192649
0.192677
0.192703
0.192727
0.19275
0.19277
0.192789
0.192806
0.192821
0.192835
0.192846
0.192855
0.192863
0.192869
0.192872
0.192874
0.192874
0.192872
0.192869
0.192863
0.192855
0.192846
0.192835
0.192821
0.192806
0.192789
0.19277
0.19275
0.192727
0.192703
0.192677
0.192649
0.192619
0.192587
0.192554
0.192519
0.197507
0.197518
0.197529
0.19754
0.19755
0.197559
0.197568
0.197576
0.197583
0.19759
0.197596
0.197602
0.197607
0.197611
0.197615
0.197618
0.197621
0.197623
0.197624
0.197625
0.197625
0.197624
0.197623
0.197621
0.197618
0.197615
0.197611
0.197607
0.197602
0.197596
0.19759
0.197583
0.197576
0.197568
0.197559
0.19755
0.19754
0.197529
0.197518
0.197507
0.0025
0.0025
0.0025
0.0025
0.0025
0.0025
0.0025
0.0025
0.0025
0.0025
0.0025
0.0025
0.0025
0.0025
0.0025
0.0025
0.0025
0.0025
0.0025
0.0025
0.0025
0.0025
0.0025
0.0025
0.0025
0.0025
0.0025
0.0025
0.0025
0.0025
0.0025
0.0025
0.0025
0.0025
0.0025
0.0025
0.0025
0.0025
0.0025
0.0025
0.0075
0.0075
0.0075
0.0075
0.0075
0.0075
0.0075
0.0075
0.0075
0.0075
0.0075
0.0075
0.0075
0.0075
0.0075
0.0075
0.0075
0.0075
0.0075
0.0075
0.0075
0.0075
0.0075
0.0075
0.0075
0.0075
0.0075
0.0075
0.0075
0.0075
0.0075
0.0075
0.0075
0.0075
0.0075
0.0075
0.0075
0.0075
0.0075
0.0075
0.0125
0.0125
0.0125
0.0125
0.0125
0.0125
0.0125
0.0125
0.0125
0.0125
0.0125
0.0125
0.0125
0.0125
0.0125
0.0125
0.0125
0.0125
0.0125
0.0125
0.0125
0.0125
0.0125
0.0125
0.0125
0.0125
0.0125
0.0125
0.0125
0.0125
0.0125
0.0125
0.0125
0.0125
0.0125
0.0125
0.0125
0.0125
0.0125
0.0125
0.0175
0.0175
0.0175
0.0175
0.0175
0.0175
0.0175
0.0175
0.0175
0.0175
0.0175
0.0175
0.0175
0.0175
0.0175
0.0175
0.0175
0.0175
0.0175
0.0175
0.0175
0.0175
0.0175
0.0175
0.0175
0.0175
0.0175
0.0175
0.0175
0.0175
0.0175
0.0175
0.0175
0.0175
0.0175
0.0175
0.0175
0.0175
0.0175
0.0175
0.0225
0.0225
0.0225
0.0225
0.0225
0.0225
0.0225
0.0225
0.0225
0.0225
0.0225
0.0225
0.0225
0.0225
0.0225
0.0225
0.0225
0.0225
0.0225
0.0225
0.0225
0.0225
0.0225
0.0225
0.0225
0.0225
0.0225
0.0225
0.0225
0.0225
0.0225
0.0225
0.0225
0.0225
0.0225
0.0225
0.0225
0.0225
0.0225
0.0225
0.0275
0.0275
0.0275
0.0275
0.0275
0.0275
0.0275
0.0275
0.0275
0.0275
0.0275
0.0275
0.0275
0.0275
0.0275
0.0275
0.0275
0.0275
0.0275
0.0275
0.0275
0.0275
0.0275
0.0275
0.0275
0.0275
0.0275
0.0275
0.0275
0.0275
0.0275
0.0275
0.0275
0.0275
0.0275
0.0275
0.0275
0.0275
0.0275
0.0275
0.0325
0.0325
0.0325
0.0325
0.0325
0.0325
0.0325
0.0325
0.0325
0.0325
0.0325
0.0325
0.0325
0.0325
0.0325
0.0325
0.0325
0.0325
0.0325
0.0325
0.0325
0.0325
0.0325
0.0325
0.0325
0.0325
0.0325
0.0325
0.0325
0.0325
0.0325
0.0325
0.0325
0.0325
0.0325
0.0325
0.0325
0.0325
0.0325
0.0325
0.0375
0.0375
0.0375
0.0375
0.0375
0.0375
0.0375
0.0375
0.0375
0.0375
0.0375
0.0375
0.0375
0.0375
0.0375
0.0375
0.0375
0.0375
0.0375
0.0375
0.0375
0.0375
0.0375
0.0375
0.0375
0.0375
0.0375
0.0375
0.0375
0.0375
0.0375
0.0375
0.0375
0.0375
0.0375
0.0375
0.0375
0.0375
0.0375
0.0375
0.0425
0.0425
0.0425
0.0425
0.0425
0.0425
0.0425
0.0425
0.0425
0.0425
0.0425
0.0425
0.0425
0.0425
0.0425
0.0425
0.0425
0.0425
0.0425
0.0425
0.0425
0.0425
0.0425
0.0425
0.0425
0.0425
0.0425
0.0425
0.0425
0.0425
0.0425
0.0425
0.0425
0.0425
0.0425
0.0425
0.0425
0.0425
0.0425
0.0425
0.0475
0.0475
0.0475
0.0475
0.0475
0.0475
0.0475
0.0475
0.0475
0.0475
0.0475
0.0475
0.0475
0.0475
0.0475
0.0475
0.0475
0.0475
0.0475
0.0475
0.0475
0.0475
0.0475
0.0475
0.0475
0.0475
0.0475
0.0475
0.0475
0.0475
0.0475
0.0475
0.0475
0.0475
0.0475
0.0475
0.0475
0.0475
0.0475
0.0475
0.0525
0.0525
0.0525
0.0525
0.0525
0.0525
0.0525
0.0525
0.0525
0.0525
0.0525
0.0525
0.0525
0.0525
0.0525
0.0525
0.0525
0.0525
0.0525
0.0525
0.0525
0.0525
0.0525
0.0525
0.0525
0.0525
0.0525
0.0525
0.0525
0.0525
0.0525
0.0525
0.0525
0.0525
0.0525
0.0525
0.0525
0.0525
0.0525
0.0525
0.0575
0.0575
0.0575
0.0575
0.0575
0.0575
0.0575
0.0575
0.0575
0.0575